 Entering Link 1 = C:\G09W\l1.exe PID=     15928.
  
 Copyright (c) 1988,1990,1992,1993,1995,1998,2003,2009,2013,
            Gaussian, Inc.  All Rights Reserved.
  
 This is part of the Gaussian(R) 09 program.  It is based on
 the Gaussian(R) 03 system (copyright 2003, Gaussian, Inc.),
 the Gaussian(R) 98 system (copyright 1998, Gaussian, Inc.),
 the Gaussian(R) 94 system (copyright 1995, Gaussian, Inc.),
 the Gaussian 92(TM) system (copyright 1992, Gaussian, Inc.),
 the Gaussian 90(TM) system (copyright 1990, Gaussian, Inc.),
 the Gaussian 88(TM) system (copyright 1988, Gaussian, Inc.),
 the Gaussian 86(TM) system (copyright 1986, Carnegie Mellon
 University), and the Gaussian 82(TM) system (copyright 1983,
 Carnegie Mellon University). Gaussian is a federally registered
 trademark of Gaussian, Inc.
  
 This software contains proprietary and confidential information,
 including trade secrets, belonging to Gaussian, Inc.
  
 This software is provided under written license and may be
 used, copied, transmitted, or stored only in accord with that
 written license.
  
 The following legend is applicable only to US Government
 contracts under FAR:
  
                    RESTRICTED RIGHTS LEGEND
  
 Use, reproduction and disclosure by the US Government is
 subject to restrictions as set forth in subparagraphs (a)
 and (c) of the Commercial Computer Software - Restricted
 Rights clause in FAR 52.227-19.
  
 Gaussian, Inc.
 340 Quinnipiac St., Bldg. 40, Wallingford CT 06492
  
  
 ---------------------------------------------------------------
 Warning -- This program may not be used in any manner that
 competes with the business of Gaussian, Inc. or will provide
 assistance to any competitor of Gaussian, Inc.  The licensee
 of this program is prohibited from giving any competitor of
 Gaussian, Inc. access to this program.  By using this program,
 the user acknowledges that Gaussian, Inc. is engaged in the
 business of creating and licensing software in the field of
 computational chemistry and represents and warrants to the
 licensee that it is not a competitor of Gaussian, Inc. and that
 it will not use this program in any manner prohibited above.
 ---------------------------------------------------------------
  

 Cite this work as:
 Gaussian 09, Revision D.01,
 M. J. Frisch, G. W. Trucks, H. B. Schlegel, G. E. Scuseria, 
 M. A. Robb, J. R. Cheeseman, G. Scalmani, V. Barone, B. Mennucci, 
 G. A. Petersson, H. Nakatsuji, M. Caricato, X. Li, H. P. Hratchian, 
 A. F. Izmaylov, J. Bloino, G. Zheng, J. L. Sonnenberg, M. Hada, 
 M. Ehara, K. Toyota, R. Fukuda, J. Hasegawa, M. Ishida, T. Nakajima, 
 Y. Honda, O. Kitao, H. Nakai, T. Vreven, J. A. Montgomery, Jr., 
 J. E. Peralta, F. Ogliaro, M. Bearpark, J. J. Heyd, E. Brothers, 
 K. N. Kudin, V. N. Staroverov, T. Keith, R. Kobayashi, J. Normand, 
 K. Raghavachari, A. Rendell, J. C. Burant, S. S. Iyengar, J. Tomasi, 
 M. Cossi, N. Rega, J. M. Millam, M. Klene, J. E. Knox, J. B. Cross, 
 V. Bakken, C. Adamo, J. Jaramillo, R. Gomperts, R. E. Stratmann, 
 O. Yazyev, A. J. Austin, R. Cammi, C. Pomelli, J. W. Ochterski, 
 R. L. Martin, K. Morokuma, V. G. Zakrzewski, G. A. Voth, 
 P. Salvador, J. J. Dannenberg, S. Dapprich, A. D. Daniels, 
 O. Farkas, J. B. Foresman, J. V. Ortiz, J. Cioslowski, 
 and D. J. Fox, Gaussian, Inc., Wallingford CT, 2013.
 
 ******************************************
 Gaussian 09:  EM64W-G09RevD.01 13-Apr-2013
                22-Nov-2021 
 ******************************************
 -------------------------
 # opt freq b3lyp/6-31g(d)
 -------------------------
 1/14=-1,18=20,19=15,26=3,38=1/1,3;
 2/9=110,12=2,17=6,18=5,40=1/2;
 3/5=1,6=6,7=1,11=2,16=1,25=1,30=1,71=1,74=-5/1,2,3;
 4//1;
 5/5=2,38=5/2;
 6/7=2,8=2,9=2,10=2,28=1/1;
 7//1,2,3,16;
 1/14=-1,18=20,19=15,26=3/3(2);
 2/9=110/2;
 99//99;
 2/9=110/2;
 3/5=1,6=6,7=1,11=2,16=1,25=1,30=1,71=1,74=-5/1,2,3;
 4/5=5,16=3,69=1/1;
 5/5=2,38=5/2;
 7//1,2,3,16;
 1/14=-1,18=20,19=15,26=3/3(-5);
 2/9=110/2;
 6/7=2,8=2,9=2,10=2,19=2,28=1/1;
 99/9=1/99;
 --------------------
 CH OPT and FREQ Calc
 --------------------
 Symbolic Z-matrix:
 Charge =  0 Multiplicity = 2
 C                     0.37383  -0.35826   0. 
 H                     1.44383  -0.35826   0. 
 

 GradGradGradGradGradGradGradGradGradGradGradGradGradGradGradGradGradGrad
 Berny optimization.
 Initialization pass.
                           ----------------------------
                           !    Initial Parameters    !
                           ! (Angstroms and Degrees)  !
 --------------------------                            --------------------------
 ! Name  Definition              Value          Derivative Info.                !
 --------------------------------------------------------------------------------
 ! R1    R(1,2)                  1.07           estimate D2E/DX2                !
 --------------------------------------------------------------------------------
 Trust Radius=3.00D-01 FncErr=1.00D-07 GrdErr=1.00D-06
 Number of steps in this run=     20 maximum allowed number of steps=    100.
 GradGradGradGradGradGradGradGradGradGradGradGradGradGradGradGradGradGrad

                          Input orientation:                          
 ---------------------------------------------------------------------
 Center     Atomic      Atomic             Coordinates (Angstroms)
 Number     Number       Type             X           Y           Z
 ---------------------------------------------------------------------
      1          6           0        0.373832   -0.358255    0.000000
      2          1           0        1.443832   -0.358255    0.000000
 ---------------------------------------------------------------------
 Stoichiometry    CH(2)
 Framework group  C*V[C*(HC)]
 Deg. of freedom     1
 Full point group                 C*V     NOp   4
 Largest Abelian subgroup         C2V     NOp   4
 Largest concise Abelian subgroup C1      NOp   1
                         Standard orientation:                         
 ---------------------------------------------------------------------
 Center     Atomic      Atomic             Coordinates (Angstroms)
 Number     Number       Type             X           Y           Z
 ---------------------------------------------------------------------
      1          6           0        0.000000    0.000000    0.152857
      2          1           0        0.000000    0.000000   -0.917143
 ---------------------------------------------------------------------
 Rotational constants (GHZ):      0.0000000    474.7751047    474.7751047
 Standard basis: 6-31G(d) (6D, 7F)
 There are    10 symmetry adapted cartesian basis functions of A1  symmetry.
 There are     1 symmetry adapted cartesian basis functions of A2  symmetry.
 There are     3 symmetry adapted cartesian basis functions of B1  symmetry.
 There are     3 symmetry adapted cartesian basis functions of B2  symmetry.
 There are    10 symmetry adapted basis functions of A1  symmetry.
 There are     1 symmetry adapted basis functions of A2  symmetry.
 There are     3 symmetry adapted basis functions of B1  symmetry.
 There are     3 symmetry adapted basis functions of B2  symmetry.
    17 basis functions,    32 primitive gaussians,    17 cartesian basis functions
     4 alpha electrons        3 beta electrons
       nuclear repulsion energy         2.9673488332 Hartrees.
 NAtoms=    2 NActive=    2 NUniq=    2 SFac= 1.00D+00 NAtFMM=   60 NAOKFM=F Big=F
 Integral buffers will be    131072 words long.
 Raffenetti 2 integral format.
 Two-electron integral symmetry is turned on.
 One-electron integrals computed using PRISM.
 NBasis=    17 RedAO= T EigKep=  7.97D-02  NBF=    10     1     3     3
 NBsUse=    17 1.00D-06 EigRej= -1.00D+00 NBFU=    10     1     3     3
 ExpMin= 1.61D-01 ExpMax= 3.05D+03 ExpMxC= 4.57D+02 IAcc=1 IRadAn=         1 AccDes= 0.00D+00
 Harris functional with IExCor=  402 and IRadAn=       1 diagonalized for initial guess.
 HarFok:  IExCor=  402 AccDes= 0.00D+00 IRadAn=         1 IDoV= 1 UseB2=F ITyADJ=14
 ICtDFT=  3500011 ScaDFX=  1.000000  1.000000  1.000000  1.000000
 FoFCou: FMM=F IPFlag=           0 FMFlag=      100000 FMFlg1=           0
         NFxFlg=           0 DoJE=T BraDBF=F KetDBF=T FulRan=T
         wScrn=  0.000000 ICntrl=     500 IOpCl=  0 I1Cent=   200000004 NGrid=           0
         NMat0=    1 NMatS0=      1 NMatT0=    0 NMatD0=    1 NMtDS0=    0 NMtDT0=    0
 Petite list used in FoFCou.
 Initial guess orbital symmetries:
 Alpha Orbitals:
       Occupied  (SG) (SG) (SG) (PI)
       Virtual   (PI) (SG) (PI) (PI) (SG) (SG) (SG) (PI) (PI) (DLTA)
                 (DLTA) (SG) (SG)
 Beta  Orbitals:
       Occupied  (SG) (SG) (SG)
       Virtual   (PI) (PI) (SG) (PI) (PI) (SG) (SG) (SG) (PI) (PI)
                 (DLTA) (DLTA) (SG) (SG)
 Initial guess <Sx>= 0.0000 <Sy>= 0.0000 <Sz>= 0.5000 <S**2>= 0.7500 S= 0.5000
 Keep R1 and R2 ints in memory in symmetry-blocked form, NReq=891920.
 Requested convergence on RMS density matrix=1.00D-08 within 128 cycles.
 Requested convergence on MAX density matrix=1.00D-06.
 Requested convergence on             energy=1.00D-06.
 No special actions if energy rises.
 Integral accuracy reduced to 1.0D-05 until final iterations.
 Initial convergence to 1.0D-05 achieved.  Increase integral accuracy.
 SCF Done:  E(UB3LYP) =  -38.4769314935     A.U. after   12 cycles
            NFock= 12  Conv=0.21D-08     -V/T= 2.0054
 <Sx>= 0.0000 <Sy>= 0.0000 <Sz>= 0.5000 <S**2>= 0.7521 S= 0.5010
 <L.S>= 0.000000000000E+00
 Annihilation of the first spin contaminant:
 S**2 before annihilation     0.7521,   after     0.7500

 **********************************************************************

            Population analysis using the SCF density.

 **********************************************************************

 Orbital symmetries:
 Alpha Orbitals:
       Occupied  (SG) (SG) (SG) (PI)
       Virtual   (PI) (SG) (PI) (PI) (SG) (SG) (SG) (PI) (DLTA)
                 (PI) (DLTA) (SG) (SG)
 Beta  Orbitals:
       Occupied  (SG) (SG) (SG)
       Virtual   (PI) (PI) (SG) (PI) (SG) (PI) (SG) (SG) (PI) (PI)
                 (?A) (?A) (?A) (SG)
 Unable to determine electronic state:  partially filled degenerate orbitals.
 Alpha  occ. eigenvalues --  -10.27215  -0.65586  -0.31094  -0.24479
 Alpha virt. eigenvalues --   -0.13141   0.14017   0.51711   0.54386   0.55338
 Alpha virt. eigenvalues --    0.63507   0.89502   1.64343   1.65303   1.65712
 Alpha virt. eigenvalues --    1.66468   2.14340   3.87736
  Beta  occ. eigenvalues --  -10.25829  -0.61453  -0.28801
  Beta virt. eigenvalues --   -0.11256  -0.06266   0.14923   0.55461   0.56369
  Beta virt. eigenvalues --    0.59193   0.65478   0.91214   1.66539   1.71110
  Beta virt. eigenvalues --    1.73379   1.73470   2.17107   3.91348
          Condensed to atoms (all electrons):
               1          2
     1  C    5.984521   0.155601
     2  H    0.155601   0.704277
          Atomic-Atomic Spin Densities.
               1          2
     1  C    1.054902  -0.017452
     2  H   -0.017452  -0.019998
 Mulliken charges and spin densities:
               1          2
     1  C   -0.140122   1.037450
     2  H    0.140122  -0.037450
 Sum of Mulliken charges =   0.00000   1.00000
 Mulliken charges and spin densities with hydrogens summed into heavy atoms:
               1          2
     1  C    0.000000   1.000000
 Electronic spatial extent (au):  <R**2>=             18.3515
 Charge=              0.0000 electrons
 Dipole moment (field-independent basis, Debye):
    X=              0.0000    Y=              0.0000    Z=             -1.5065  Tot=              1.5065
 Quadrupole moment (field-independent basis, Debye-Ang):
   XX=             -7.2184   YY=             -5.3391   ZZ=             -7.4123
   XY=              0.0000   XZ=              0.0000   YZ=              0.0000
 Traceless Quadrupole moment (field-independent basis, Debye-Ang):
   XX=             -0.5618   YY=              1.3175   ZZ=             -0.7557
   XY=              0.0000   XZ=              0.0000   YZ=              0.0000
 Octapole moment (field-independent basis, Debye-Ang**2):
  XXX=              0.0000  YYY=              0.0000  ZZZ=             -2.1557  XYY=              0.0000
  XXY=              0.0000  XXZ=             -0.6810  XZZ=              0.0000  YZZ=              0.0000
  YYZ=             -0.4138  XYZ=              0.0000
 Hexadecapole moment (field-independent basis, Debye-Ang**3):
 XXXX=             -7.7743 YYYY=             -4.5584 ZZZZ=            -13.2857 XXXY=              0.0000
 XXXZ=              0.0000 YYYX=              0.0000 YYYZ=              0.0000 ZZZX=              0.0000
 ZZZY=              0.0000 XXYY=             -2.0554 XXZZ=             -3.6014 YYZZ=             -3.0275
 XXYZ=              0.0000 YYXZ=              0.0000 ZZXY=              0.0000
 N-N= 2.967348833215D+00 E-N=-9.521551814994D+01  KE= 3.827102207637D+01
 Symmetry A1   KE= 3.703310361756D+01
 Symmetry A2   KE= 3.173316075333D-35
 Symmetry B1   KE= 1.237918458808D+00
 Symmetry B2   KE= 9.282901593677D-33
                          Isotropic Fermi Contact Couplings
        Atom                 a.u.       MegaHertz       Gauss      10(-4) cm-1
     1  C(13)              0.04189      47.08846      16.80233      15.70702
     2  H(1)              -0.01117     -49.93893     -17.81945     -16.65783
 --------------------------------------------------------
       Center         ----  Spin Dipole Couplings  ----
                      3XX-RR        3YY-RR        3ZZ-RR
 --------------------------------------------------------
     1   Atom        1.245477     -0.639246     -0.606231
     2   Atom       -0.005282     -0.079771      0.085053
 --------------------------------------------------------
                        XY            XZ            YZ
 --------------------------------------------------------
     1   Atom        0.000000      0.000000      0.000000
     2   Atom        0.000000      0.000000      0.000000
 --------------------------------------------------------


 ---------------------------------------------------------------------------------
              Anisotropic Spin Dipole Couplings in Principal Axis System
 ---------------------------------------------------------------------------------

       Atom             a.u.   MegaHertz   Gauss  10(-4) cm-1        Axes

              Baa    -0.6392   -85.781   -30.609   -28.613  0.0000  1.0000  0.0000
     1 C(13)  Bbb    -0.6062   -81.350   -29.028   -27.136  0.0000  0.0000  1.0000
              Bcc     1.2455   167.131    59.637    55.749  1.0000  0.0000  0.0000
 
              Baa    -0.0798   -42.562   -15.187   -14.197  0.0000  1.0000  0.0000
     2 H(1)   Bbb    -0.0053    -2.818    -1.006    -0.940  1.0000  0.0000  0.0000
              Bcc     0.0851    45.380    16.193    15.137  0.0000  0.0000  1.0000
 

 ---------------------------------------------------------------------------------

 Calling FoFJK, ICntrl=      2127 FMM=F ISym2X=1 I1Cent= 0 IOpClX= 1 NMat=1 NMatS=1 NMatT=0.
 ***** Axes restored to original set *****
 -------------------------------------------------------------------
 Center     Atomic                   Forces (Hartrees/Bohr)
 Number     Number              X              Y              Z
 -------------------------------------------------------------------
      1        6          -0.039891231    0.000000000    0.000000000
      2        1           0.039891231    0.000000000    0.000000000
 -------------------------------------------------------------------
 Cartesian Forces:  Max     0.039891231 RMS     0.023031213

 GradGradGradGradGradGradGradGradGradGradGradGradGradGradGradGradGradGrad
 Berny optimization.
 FormGI is forming the generalized inverse of G from B-inverse, IUseBI=4.
 Internal  Forces:  Max     0.039891231 RMS     0.039891231
 Search for a local minimum.
 Step number   1 out of a maximum of   20
 All quantities printed in internal units (Hartrees-Bohrs-Radians)
 Mixed Optimization -- RFO/linear search
 Second derivative matrix not updated -- first step.
 The second derivative matrix:
                          R1
           R1           0.37230
 ITU=  0
     Eigenvalues ---    0.37230
 RFO step:  Lambda=-4.22628118D-03 EMin= 3.72301039D-01
 Linear search not attempted -- first point.
 Iteration  1 RMS(Cart)=  0.07491451 RMS(Int)=  0.00000000
 Iteration  2 RMS(Cart)=  0.00000000 RMS(Int)=  0.00000000
 ClnCor:  largest displacement from symmetrization is 0.00D+00 for atom     0.
 Variable       Old X    -DE/DX   Delta X   Delta X   Delta X     New X
                                 (Linear)    (Quad)   (Total)
    R1        2.02201   0.03989   0.00000   0.10595   0.10595   2.12795
         Item               Value     Threshold  Converged?
 Maximum Force            0.039891     0.000450     NO 
 RMS     Force            0.039891     0.000300     NO 
 Maximum Displacement     0.052973     0.001800     NO 
 RMS     Displacement     0.074915     0.001200     NO 
 Predicted change in Energy=-2.136859D-03
 GradGradGradGradGradGradGradGradGradGradGradGradGradGradGradGradGradGrad

                          Input orientation:                          
 ---------------------------------------------------------------------
 Center     Atomic      Atomic             Coordinates (Angstroms)
 Number     Number       Type             X           Y           Z
 ---------------------------------------------------------------------
      1          6           0        0.345800   -0.358255    0.000000
      2          1           0        1.471864   -0.358255    0.000000
 ---------------------------------------------------------------------
 Stoichiometry    CH(2)
 Framework group  C*V[C*(HC)]
 Deg. of freedom     1
 Full point group                 C*V     NOp   4
 Largest Abelian subgroup         C2V     NOp   4
 Largest concise Abelian subgroup C1      NOp   1
                         Standard orientation:                         
 ---------------------------------------------------------------------
 Center     Atomic      Atomic             Coordinates (Angstroms)
 Number     Number       Type             X           Y           Z
 ---------------------------------------------------------------------
      1          6           0        0.000000    0.000000    0.160866
      2          1           0        0.000000    0.000000   -0.965197
 ---------------------------------------------------------------------
 Rotational constants (GHZ):      0.0000000    428.6763696    428.6763696
 Standard basis: 6-31G(d) (6D, 7F)
 There are    10 symmetry adapted cartesian basis functions of A1  symmetry.
 There are     1 symmetry adapted cartesian basis functions of A2  symmetry.
 There are     3 symmetry adapted cartesian basis functions of B1  symmetry.
 There are     3 symmetry adapted cartesian basis functions of B2  symmetry.
 There are    10 symmetry adapted basis functions of A1  symmetry.
 There are     1 symmetry adapted basis functions of A2  symmetry.
 There are     3 symmetry adapted basis functions of B1  symmetry.
 There are     3 symmetry adapted basis functions of B2  symmetry.
    17 basis functions,    32 primitive gaussians,    17 cartesian basis functions
     4 alpha electrons        3 beta electrons
       nuclear repulsion energy         2.8196123667 Hartrees.
 NAtoms=    2 NActive=    2 NUniq=    2 SFac= 1.00D+00 NAtFMM=   60 NAOKFM=F Big=F
 Integral buffers will be    131072 words long.
 Raffenetti 2 integral format.
 Two-electron integral symmetry is turned on.
 One-electron integrals computed using PRISM.
 NBasis=    17 RedAO= T EigKep=  8.72D-02  NBF=    10     1     3     3
 NBsUse=    17 1.00D-06 EigRej= -1.00D+00 NBFU=    10     1     3     3
 Initial guess from the checkpoint file:  "C:\Work\Gau-15928.chk"
 B after Tr=     0.000000    0.000000    0.000000
         Rot=    1.000000    0.000000    0.000000    0.000000 Ang=   0.00 deg.
 Initial guess orbital symmetries:
 Alpha Orbitals:
       Occupied  (SG) (SG) (SG) (?A)
       Virtual   (?B) (SG) (SG) (?B) (?B) (SG) (SG) (?B) (?A) (?A)
                 (?A) (?A) (?A)
 Beta  Orbitals:
       Occupied  (SG) (SG) (SG)
       Virtual   (?A) (SG) (SG) (?A) (?A) (SG) (SG) (?A) (PI) (PI)
                 (PI) (PI) (PI) (PI)
 Initial guess <Sx>= 0.0000 <Sy>= 0.0000 <Sz>= 0.5000 <S**2>= 0.7521 S= 0.5011
 ExpMin= 1.61D-01 ExpMax= 3.05D+03 ExpMxC= 4.57D+02 IAcc=1 IRadAn=         1 AccDes= 0.00D+00
 Harris functional with IExCor=  402 and IRadAn=       1 diagonalized for initial guess.
 HarFok:  IExCor=  402 AccDes= 0.00D+00 IRadAn=         1 IDoV= 1 UseB2=F ITyADJ=14
 ICtDFT=  3500011 ScaDFX=  1.000000  1.000000  1.000000  1.000000
 FoFCou: FMM=F IPFlag=           0 FMFlag=      100000 FMFlg1=           0
         NFxFlg=           0 DoJE=T BraDBF=F KetDBF=T FulRan=T
         wScrn=  0.000000 ICntrl=     500 IOpCl=  0 I1Cent=   200000004 NGrid=           0
         NMat0=    1 NMatS0=      1 NMatT0=    0 NMatD0=    1 NMtDS0=    0 NMtDT0=    0
 Petite list used in FoFCou.
 Keep R1 and R2 ints in memory in symmetry-blocked form, NReq=891920.
 Requested convergence on RMS density matrix=1.00D-08 within 128 cycles.
 Requested convergence on MAX density matrix=1.00D-06.
 Requested convergence on             energy=1.00D-06.
 No special actions if energy rises.
 Integral accuracy reduced to 1.0D-05 until final iterations.
 Initial convergence to 1.0D-05 achieved.  Increase integral accuracy.
 SCF Done:  E(UB3LYP) =  -38.4791381063     A.U. after   11 cycles
            NFock= 11  Conv=0.33D-08     -V/T= 2.0072
 <Sx>= 0.0000 <Sy>= 0.0000 <Sz>= 0.5000 <S**2>= 0.7522 S= 0.5011
 <L.S>= 0.000000000000E+00
 Annihilation of the first spin contaminant:
 S**2 before annihilation     0.7522,   after     0.7500
 Calling FoFJK, ICntrl=      2127 FMM=F ISym2X=1 I1Cent= 0 IOpClX= 1 NMat=1 NMatS=1 NMatT=0.
 ***** Axes restored to original set *****
 -------------------------------------------------------------------
 Center     Atomic                   Forces (Hartrees/Bohr)
 Number     Number              X              Y              Z
 -------------------------------------------------------------------
      1        6          -0.003735380    0.000000000    0.000000000
      2        1           0.003735380    0.000000000    0.000000000
 -------------------------------------------------------------------
 Cartesian Forces:  Max     0.003735380 RMS     0.002156623

 GradGradGradGradGradGradGradGradGradGradGradGradGradGradGradGradGradGrad
 Berny optimization.
 Using GEDIIS/GDIIS optimizer.
 Internal  Forces:  Max     0.003735380 RMS     0.003735380
 Search for a local minimum.
 Step number   2 out of a maximum of   20
 All quantities printed in internal units (Hartrees-Bohrs-Radians)
 Mixed Optimization -- RFO/linear search
 Update second derivatives using D2CorX and points    1    2
 DE= -2.21D-03 DEPred=-2.14D-03 R= 1.03D+00
 TightC=F SS=  1.41D+00  RLast= 1.06D-01 DXNew= 5.0454D-01 3.1784D-01
 Trust test= 1.03D+00 RLast= 1.06D-01 DXMaxT set to 3.18D-01
 The second derivative matrix:
                          R1
           R1           0.34127
 ITU=  1  0
 Use linear search instead of GDIIS.
     Eigenvalues ---    0.34127
 RFO step:  Lambda= 0.00000000D+00 EMin= 3.41269633D-01
 Quartic linear search produced a step of  0.12565.
 Iteration  1 RMS(Cart)=  0.00941318 RMS(Int)=  0.00000000
 Iteration  2 RMS(Cart)=  0.00000000 RMS(Int)=  0.00000000
 ClnCor:  largest displacement from symmetrization is 0.00D+00 for atom     0.
 Variable       Old X    -DE/DX   Delta X   Delta X   Delta X     New X
                                 (Linear)    (Quad)   (Total)
    R1        2.12795   0.00374   0.01331   0.00000   0.01331   2.14126
         Item               Value     Threshold  Converged?
 Maximum Force            0.003735     0.000450     NO 
 RMS     Force            0.003735     0.000300     NO 
 Maximum Displacement     0.006656     0.001800     NO 
 RMS     Displacement     0.009413     0.001200     NO 
 Predicted change in Energy=-1.948709D-05
 GradGradGradGradGradGradGradGradGradGradGradGradGradGradGradGradGradGrad

                          Input orientation:                          
 ---------------------------------------------------------------------
 Center     Atomic      Atomic             Coordinates (Angstroms)
 Number     Number       Type             X           Y           Z
 ---------------------------------------------------------------------
      1          6           0        0.342278   -0.358255    0.000000
      2          1           0        1.475386   -0.358255    0.000000
 ---------------------------------------------------------------------
 Stoichiometry    CH(2)
 Framework group  C*V[C*(HC)]
 Deg. of freedom     1
 Full point group                 C*V     NOp   4
 Largest Abelian subgroup         C2V     NOp   4
 Largest concise Abelian subgroup C1      NOp   1
                         Standard orientation:                         
 ---------------------------------------------------------------------
 Center     Atomic      Atomic             Coordinates (Angstroms)
 Number     Number       Type             X           Y           Z
 ---------------------------------------------------------------------
      1          6           0        0.000000    0.000000    0.161873
      2          1           0        0.000000    0.000000   -0.971236
 ---------------------------------------------------------------------
 Rotational constants (GHZ):      0.0000000    423.3627713    423.3627713
 Standard basis: 6-31G(d) (6D, 7F)
 There are    10 symmetry adapted cartesian basis functions of A1  symmetry.
 There are     1 symmetry adapted cartesian basis functions of A2  symmetry.
 There are     3 symmetry adapted cartesian basis functions of B1  symmetry.
 There are     3 symmetry adapted cartesian basis functions of B2  symmetry.
 There are    10 symmetry adapted basis functions of A1  symmetry.
 There are     1 symmetry adapted basis functions of A2  symmetry.
 There are     3 symmetry adapted basis functions of B1  symmetry.
 There are     3 symmetry adapted basis functions of B2  symmetry.
    17 basis functions,    32 primitive gaussians,    17 cartesian basis functions
     4 alpha electrons        3 beta electrons
       nuclear repulsion energy         2.8020828196 Hartrees.
 NAtoms=    2 NActive=    2 NUniq=    2 SFac= 1.00D+00 NAtFMM=   60 NAOKFM=F Big=F
 Integral buffers will be    131072 words long.
 Raffenetti 2 integral format.
 Two-electron integral symmetry is turned on.
 One-electron integrals computed using PRISM.
 NBasis=    17 RedAO= T EigKep=  8.78D-02  NBF=    10     1     3     3
 NBsUse=    17 1.00D-06 EigRej= -1.00D+00 NBFU=    10     1     3     3
 Initial guess from the checkpoint file:  "C:\Work\Gau-15928.chk"
 B after Tr=     0.000000    0.000000    0.000000
         Rot=    1.000000    0.000000    0.000000    0.000000 Ang=   0.00 deg.
 Initial guess orbital symmetries:
 Alpha Orbitals:
       Occupied  (SG) (SG) (SG) (?A)
       Virtual   (?B) (SG) (SG) (?B) (?B) (SG) (SG) (?B) (?A) (?A)
                 (?A) (?A) (?A)
 Beta  Orbitals:
       Occupied  (SG) (SG) (SG)
       Virtual   (?A) (SG) (SG) (?A) (?A) (SG) (SG) (?A) (PI) (PI)
                 (PI) (PI) (PI) (PI)
 Initial guess <Sx>= 0.0000 <Sy>= 0.0000 <Sz>= 0.5000 <S**2>= 0.7522 S= 0.5011
 Keep R1 and R2 ints in memory in symmetry-blocked form, NReq=891920.
 Requested convergence on RMS density matrix=1.00D-08 within 128 cycles.
 Requested convergence on MAX density matrix=1.00D-06.
 Requested convergence on             energy=1.00D-06.
 No special actions if energy rises.
 SCF Done:  E(UB3LYP) =  -38.4791626661     A.U. after    8 cycles
            NFock=  8  Conv=0.44D-08     -V/T= 2.0074
 <Sx>= 0.0000 <Sy>= 0.0000 <Sz>= 0.5000 <S**2>= 0.7522 S= 0.5011
 <L.S>= 0.000000000000E+00
 Annihilation of the first spin contaminant:
 S**2 before annihilation     0.7522,   after     0.7500
 Calling FoFJK, ICntrl=      2127 FMM=F ISym2X=1 I1Cent= 0 IOpClX= 1 NMat=1 NMatS=1 NMatT=0.
 ***** Axes restored to original set *****
 -------------------------------------------------------------------
 Center     Atomic                   Forces (Hartrees/Bohr)
 Number     Number              X              Y              Z
 -------------------------------------------------------------------
      1        6           0.000019258    0.000000000    0.000000000
      2        1          -0.000019258    0.000000000    0.000000000
 -------------------------------------------------------------------
 Cartesian Forces:  Max     0.000019258 RMS     0.000011119

 GradGradGradGradGradGradGradGradGradGradGradGradGradGradGradGradGradGrad
 Berny optimization.
 Using GEDIIS/GDIIS optimizer.
 Internal  Forces:  Max     0.000019258 RMS     0.000019258
 Search for a local minimum.
 Step number   3 out of a maximum of   20
 All quantities printed in internal units (Hartrees-Bohrs-Radians)
 Mixed Optimization -- En-DIIS/RFO-DIIS
 Update second derivatives using D2CorX and points    2    3
 DE= -2.46D-05 DEPred=-1.95D-05 R= 1.26D+00
 TightC=F SS=  1.41D+00  RLast= 1.33D-02 DXNew= 5.3453D-01 3.9937D-02
 Trust test= 1.26D+00 RLast= 1.33D-02 DXMaxT set to 3.18D-01
 The second derivative matrix:
                          R1
           R1           0.28204
 ITU=  1  1
 Use linear search instead of GDIIS.
     Eigenvalues ---    0.28204
 RFO step:  Lambda= 0.00000000D+00 EMin= 2.82043751D-01
 Quartic linear search produced a step of -0.00524.
 Iteration  1 RMS(Cart)=  0.00004931 RMS(Int)=  0.00000000
 Iteration  2 RMS(Cart)=  0.00000000 RMS(Int)=  0.00000000
 ClnCor:  largest displacement from symmetrization is 0.00D+00 for atom     0.
 Variable       Old X    -DE/DX   Delta X   Delta X   Delta X     New X
                                 (Linear)    (Quad)   (Total)
    R1        2.14126  -0.00002  -0.00007   0.00000  -0.00007   2.14119
         Item               Value     Threshold  Converged?
 Maximum Force            0.000019     0.000450     YES
 RMS     Force            0.000019     0.000300     YES
 Maximum Displacement     0.000035     0.001800     YES
 RMS     Displacement     0.000049     0.001200     YES
 Predicted change in Energy=-6.571723D-10
 Optimization completed.
    -- Stationary point found.
                           ----------------------------
                           !   Optimized Parameters   !
                           ! (Angstroms and Degrees)  !
 --------------------------                            --------------------------
 ! Name  Definition              Value          Derivative Info.                !
 --------------------------------------------------------------------------------
 ! R1    R(1,2)                  1.1331         -DE/DX =    0.0                 !
 --------------------------------------------------------------------------------
 GradGradGradGradGradGradGradGradGradGradGradGradGradGradGradGradGradGrad

                          Input orientation:                          
 ---------------------------------------------------------------------
 Center     Atomic      Atomic             Coordinates (Angstroms)
 Number     Number       Type             X           Y           Z
 ---------------------------------------------------------------------
      1          6           0        0.342278   -0.358255    0.000000
      2          1           0        1.475386   -0.358255    0.000000
 ---------------------------------------------------------------------
 Stoichiometry    CH(2)
 Framework group  C*V[C*(HC)]
 Deg. of freedom     1
 Full point group                 C*V     NOp   4
 Largest Abelian subgroup         C2V     NOp   4
 Largest concise Abelian subgroup C1      NOp   1
                         Standard orientation:                         
 ---------------------------------------------------------------------
 Center     Atomic      Atomic             Coordinates (Angstroms)
 Number     Number       Type             X           Y           Z
 ---------------------------------------------------------------------
      1          6           0        0.000000    0.000000    0.161873
      2          1           0        0.000000    0.000000   -0.971236
 ---------------------------------------------------------------------
 Rotational constants (GHZ):      0.0000000    423.3627713    423.3627713

 **********************************************************************

            Population analysis using the SCF density.

 **********************************************************************

 Orbital symmetries:
 Alpha Orbitals:
       Occupied  (SG) (SG) (SG) (PI)
       Virtual   (PI) (SG) (PI) (PI) (SG) (SG) (SG) (PI) (DLTA)
                 (PI) (DLTA) (SG) (SG)
 Beta  Orbitals:
       Occupied  (SG) (SG) (SG)
       Virtual   (PI) (PI) (SG) (PI) (SG) (PI) (SG) (SG) (PI) (PI)
                 (?A) (?A) (?A) (SG)
 Unable to determine electronic state:  partially filled degenerate orbitals.
 Alpha  occ. eigenvalues --  -10.27987  -0.64169  -0.31184  -0.24611
 Alpha virt. eigenvalues --   -0.13244   0.12289   0.51497   0.54170   0.56326
 Alpha virt. eigenvalues --    0.63481   0.84690   1.64633   1.65115   1.66068
 Alpha virt. eigenvalues --    1.66279   2.07249   3.86045
  Beta  occ. eigenvalues --  -10.26594  -0.59908  -0.29016
  Beta virt. eigenvalues --   -0.11362  -0.06355   0.13271   0.55239   0.57383
  Beta virt. eigenvalues --    0.58974   0.65312   0.86267   1.66918   1.71495
  Beta virt. eigenvalues --    1.73162   1.73290   2.10129   3.89667
          Condensed to atoms (all electrons):
               1          2
     1  C    5.959287   0.162353
     2  H    0.162353   0.716008
          Atomic-Atomic Spin Densities.
               1          2
     1  C    1.051171  -0.013588
     2  H   -0.013588  -0.023995
 Mulliken charges and spin densities:
               1          2
     1  C   -0.121640   1.037583
     2  H    0.121640  -0.037583
 Sum of Mulliken charges =   0.00000   1.00000
 Mulliken charges and spin densities with hydrogens summed into heavy atoms:
               1          2
     1  C    0.000000   1.000000
 Electronic spatial extent (au):  <R**2>=             18.9156
 Charge=              0.0000 electrons
 Dipole moment (field-independent basis, Debye):
    X=              0.0000    Y=              0.0000    Z=             -1.3838  Tot=              1.3838
 Quadrupole moment (field-independent basis, Debye-Ang):
   XX=             -7.2832   YY=             -5.4103   ZZ=             -7.4628
   XY=              0.0000   XZ=              0.0000   YZ=              0.0000
 Traceless Quadrupole moment (field-independent basis, Debye-Ang):
   XX=             -0.5644   YY=              1.3085   ZZ=             -0.7440
   XY=              0.0000   XZ=              0.0000   YZ=              0.0000
 Octapole moment (field-independent basis, Debye-Ang**2):
  XXX=              0.0000  YYY=              0.0000  ZZZ=             -1.9720  XYY=              0.0000
  XXY=              0.0000  XXZ=             -0.6004  XZZ=              0.0000  YZZ=              0.0000
  YYZ=             -0.3154  XYZ=              0.0000
 Hexadecapole moment (field-independent basis, Debye-Ang**3):
 XXXX=             -7.8553 YYYY=             -4.6579 ZZZZ=            -14.1777 XXXY=              0.0000
 XXXZ=              0.0000 YYYX=              0.0000 YYYZ=              0.0000 ZZZX=              0.0000
 ZZZY=              0.0000 XXYY=             -2.0855 XXZZ=             -3.7835 YYZZ=             -3.2073
 XXYZ=              0.0000 YYXZ=              0.0000 ZZXY=              0.0000
 N-N= 2.802082819638D+00 E-N=-9.483811863429D+01  KE= 3.819694379627D+01
 Symmetry A1   KE= 3.695511297409D+01
 Symmetry A2   KE= 3.223281257325D-35
 Symmetry B1   KE= 1.241830822172D+00
 Symmetry B2   KE= 9.312239619818D-33
                          Isotropic Fermi Contact Couplings
        Atom                 a.u.       MegaHertz       Gauss      10(-4) cm-1
     1  C(13)              0.04185      47.05183      16.78926      15.69480
     2  H(1)              -0.01144     -51.14005     -18.24804     -17.05849
 --------------------------------------------------------
       Center         ----  Spin Dipole Couplings  ----
                      3XX-RR        3YY-RR        3ZZ-RR
 --------------------------------------------------------
     1   Atom        1.249592     -0.643605     -0.605987
     2   Atom       -0.010129     -0.070656      0.080785
 --------------------------------------------------------
                        XY            XZ            YZ
 --------------------------------------------------------
     1   Atom        0.000000      0.000000      0.000000
     2   Atom        0.000000      0.000000      0.000000
 --------------------------------------------------------


 ---------------------------------------------------------------------------------
              Anisotropic Spin Dipole Couplings in Principal Axis System
 ---------------------------------------------------------------------------------

       Atom             a.u.   MegaHertz   Gauss  10(-4) cm-1        Axes

              Baa    -0.6436   -86.366   -30.817   -28.808  0.0000  1.0000  0.0000
     1 C(13)  Bbb    -0.6060   -81.318   -29.016   -27.125  0.0000  0.0000  1.0000
              Bcc     1.2496   167.683    59.834    55.933  1.0000  0.0000  0.0000
 
              Baa    -0.0707   -37.698   -13.452   -12.575  0.0000  1.0000  0.0000
     2 H(1)   Bbb    -0.0101    -5.404    -1.928    -1.803  1.0000  0.0000  0.0000
              Bcc     0.0808    43.103    15.380    14.378  0.0000  0.0000  1.0000
 

 ---------------------------------------------------------------------------------

 1|1|UNPC-CBEGRAD02|FOpt|UB3LYP|6-31G(d)|C1H1(2)|GPD20001|22-Nov-2021|0
 ||# opt freq b3lyp/6-31g(d)||CH OPT and FREQ Calc||0,2|C,0.3422776287,
 -0.35825545,0.|H,1.4753859113,-0.35825545,0.||Version=EM64W-G09RevD.01
 |HF=-38.4791627|S2=0.752163|S2-1=0.|S2A=0.750001|RMSD=4.374e-009|RMSF=
 1.112e-005|Dipole=0.5444372,0.,0.|Quadrupole=-0.5531635,0.9728163,-0.4
 196528,0.,0.,0.|PG=C*V [C*(H1C1)]||@


 BE CAREFUL NOT TO BECOME TOO GOOD OF A SONGBIRD OR 
 THEY'LL THROW YOU INTO A CAGE.

                                    -- SNOOPY TO WOODSTOCK
 Job cpu time:       0 days  0 hours  0 minutes 13.0 seconds.
 File lengths (MBytes):  RWF=      5 Int=      0 D2E=      0 Chk=      1 Scr=      1
 Normal termination of Gaussian 09 at Mon Nov 22 14:55:52 2021.
 Link1:  Proceeding to internal job step number  2.
 --------------------------------------------------------------------
 #N Geom=AllCheck Guess=TCheck SCRF=Check GenChk UB3LYP/6-31G(d) Freq
 --------------------------------------------------------------------
 1/10=4,29=7,30=1,38=1,40=1/1,3;
 2/12=2,40=1/2;
 3/5=1,6=6,7=1,11=2,14=-4,16=1,25=1,30=1,70=2,71=2,74=-5,116=2,140=1/1,2,3;
 4/5=101/1;
 5/5=2,98=1/2;
 8/6=4,10=90,11=11/1;
 11/6=1,8=1,9=11,15=111,16=1/1,2,10;
 10/6=1/2;
 6/7=2,8=2,9=2,10=2,18=1,28=1/1;
 7/8=1,10=1,25=1/1,2,3,16;
 1/10=4,30=1/3;
 99//99;
 Structure from the checkpoint file:  "C:\Work\Gau-15928.chk"
 --------------------
 CH OPT and FREQ Calc
 --------------------
 Charge =  0 Multiplicity = 2
 Redundant internal coordinates found in file.
 C,0,0.3422776287,-0.35825545,0.
 H,0,1.4753859113,-0.35825545,0.
 Recover connectivity data from disk.

 GradGradGradGradGradGradGradGradGradGradGradGradGradGradGradGradGradGrad
 Berny optimization.
 Initialization pass.
                           ----------------------------
                           !    Initial Parameters    !
                           ! (Angstroms and Degrees)  !
 --------------------------                            --------------------------
 ! Name  Definition              Value          Derivative Info.                !
 --------------------------------------------------------------------------------
 ! R1    R(1,2)                  1.1331         calculate D2E/DX2 analytically  !
 --------------------------------------------------------------------------------
 Trust Radius=3.00D-01 FncErr=1.00D-07 GrdErr=1.00D-07
 Number of steps in this run=      2 maximum allowed number of steps=      2.
 GradGradGradGradGradGradGradGradGradGradGradGradGradGradGradGradGradGrad

                          Input orientation:                          
 ---------------------------------------------------------------------
 Center     Atomic      Atomic             Coordinates (Angstroms)
 Number     Number       Type             X           Y           Z
 ---------------------------------------------------------------------
      1          6           0        0.342278   -0.358255    0.000000
      2          1           0        1.475386   -0.358255    0.000000
 ---------------------------------------------------------------------
 Stoichiometry    CH(2)
 Framework group  C*V[C*(HC)]
 Deg. of freedom     1
 Full point group                 C*V     NOp   4
 Largest Abelian subgroup         C2V     NOp   4
 Largest concise Abelian subgroup C1      NOp   1
                         Standard orientation:                         
 ---------------------------------------------------------------------
 Center     Atomic      Atomic             Coordinates (Angstroms)
 Number     Number       Type             X           Y           Z
 ---------------------------------------------------------------------
      1          6           0        0.000000    0.000000    0.161873
      2          1           0        0.000000    0.000000   -0.971236
 ---------------------------------------------------------------------
 Rotational constants (GHZ):      0.0000000    423.3627713    423.3627713
 Standard basis: 6-31G(d) (6D, 7F)
 There are    10 symmetry adapted cartesian basis functions of A1  symmetry.
 There are     1 symmetry adapted cartesian basis functions of A2  symmetry.
 There are     3 symmetry adapted cartesian basis functions of B1  symmetry.
 There are     3 symmetry adapted cartesian basis functions of B2  symmetry.
 There are    10 symmetry adapted basis functions of A1  symmetry.
 There are     1 symmetry adapted basis functions of A2  symmetry.
 There are     3 symmetry adapted basis functions of B1  symmetry.
 There are     3 symmetry adapted basis functions of B2  symmetry.
    17 basis functions,    32 primitive gaussians,    17 cartesian basis functions
     4 alpha electrons        3 beta electrons
       nuclear repulsion energy         2.8020828196 Hartrees.
 NAtoms=    2 NActive=    2 NUniq=    2 SFac= 1.00D+00 NAtFMM=   60 NAOKFM=F Big=F
 Integral buffers will be    131072 words long.
 Raffenetti 2 integral format.
 Two-electron integral symmetry is turned on.
 One-electron integrals computed using PRISM.
 NBasis=    17 RedAO= T EigKep=  8.78D-02  NBF=    10     1     3     3
 NBsUse=    17 1.00D-06 EigRej= -1.00D+00 NBFU=    10     1     3     3
 Initial guess from the checkpoint file:  "C:\Work\Gau-15928.chk"
 B after Tr=     0.000000    0.000000    0.000000
         Rot=    1.000000    0.000000    0.000000    0.000000 Ang=   0.00 deg.
 Initial guess orbital symmetries:
 Alpha Orbitals:
       Occupied  (SG) (SG) (SG) (PI)
       Virtual   (PI) (SG) (PI) (PI) (SG) (SG) (SG) (PI) (DLTA)
                 (PI) (DLTA) (SG) (SG)
 Beta  Orbitals:
       Occupied  (SG) (SG) (SG)
       Virtual   (PI) (PI) (SG) (PI) (SG) (PI) (SG) (SG) (PI) (PI)
                 (?A) (?A) (?A) (SG)
 Initial guess <Sx>= 0.0000 <Sy>= 0.0000 <Sz>= 0.5000 <S**2>= 0.7522 S= 0.5011
 Keep R1 and R2 ints in memory in symmetry-blocked form, NReq=891920.
 Requested convergence on RMS density matrix=1.00D-08 within 128 cycles.
 Requested convergence on MAX density matrix=1.00D-06.
 Requested convergence on             energy=1.00D-06.
 No special actions if energy rises.
 SCF Done:  E(UB3LYP) =  -38.4791626661     A.U. after    1 cycles
            NFock=  1  Conv=0.30D-09     -V/T= 2.0074
 <Sx>= 0.0000 <Sy>= 0.0000 <Sz>= 0.5000 <S**2>= 0.7522 S= 0.5011
 <L.S>= 0.000000000000E+00
 Annihilation of the first spin contaminant:
 S**2 before annihilation     0.7522,   after     0.7500
 DoSCS=F DFT=T ScalE2(SS,OS)=  1.000000  1.000000
 Range of M.O.s used for correlation:     1    17
 NBasis=    17 NAE=     4 NBE=     3 NFC=     0 NFV=     0
 NROrb=     17 NOA=     4 NOB=     3 NVA=    13 NVB=    14
 Symmetrizing basis deriv contribution to polar:
 IMax=3 JMax=2 DiffMx= 0.00D+00
 G2DrvN: will do     3 centers at a time, making    1 passes.
 Calling FoFCou, ICntrl=  3107 FMM=F I1Cent=   0 AccDes= 0.00D+00.
 End of G2Drv F.D. properties file   721 does not exist.
 End of G2Drv F.D. properties file   722 does not exist.
 End of G2Drv F.D. properties file   788 does not exist.
          IDoAtm=11
          Differentiating once with respect to electric field.
                with respect to dipole field.
          Differentiating once with respect to nuclear coordinates.
 Keep R1 and R2 ints in memory in symmetry-blocked form, NReq=870906.
          There are     9 degrees of freedom in the 1st order CPHF.  IDoFFX=6 NUNeed=     3.
      6 vectors produced by pass  0 Test12= 1.04D-15 1.11D-08 XBig12= 1.90D+01 2.78D+00.
 AX will form     6 AO Fock derivatives at one time.
      6 vectors produced by pass  1 Test12= 1.04D-15 1.11D-08 XBig12= 7.80D-01 4.18D-01.
      6 vectors produced by pass  2 Test12= 1.04D-15 1.11D-08 XBig12= 5.86D-02 1.49D-01.
      6 vectors produced by pass  3 Test12= 1.04D-15 1.11D-08 XBig12= 4.14D-05 3.76D-03.
      6 vectors produced by pass  4 Test12= 1.04D-15 1.11D-08 XBig12= 6.57D-08 1.22D-04.
      6 vectors produced by pass  5 Test12= 1.04D-15 1.11D-08 XBig12= 2.71D-10 6.23D-06.
      4 vectors produced by pass  6 Test12= 1.04D-15 1.11D-08 XBig12= 2.04D-12 5.65D-07.
      1 vectors produced by pass  7 Test12= 1.04D-15 1.11D-08 XBig12= 4.50D-15 2.36D-08.
 InvSVY:  IOpt=1 It=  1 EMax= 6.66D-16
 Solved reduced A of dimension    41 with     6 vectors.
 Isotropic polarizability for W=    0.000000        9.34 Bohr**3.
 End of Minotr F.D. properties file   721 does not exist.
 End of Minotr F.D. properties file   722 does not exist.
 End of Minotr F.D. properties file   788 does not exist.

 **********************************************************************

            Population analysis using the SCF density.

 **********************************************************************

 Orbital symmetries:
 Alpha Orbitals:
       Occupied  (SG) (SG) (SG) (PI)
       Virtual   (PI) (SG) (PI) (PI) (SG) (SG) (SG) (PI) (DLTA)
                 (PI) (DLTA) (SG) (SG)
 Beta  Orbitals:
       Occupied  (SG) (SG) (SG)
       Virtual   (PI) (PI) (SG) (PI) (SG) (PI) (SG) (SG) (PI) (PI)
                 (?A) (?A) (?A) (SG)
 Unable to determine electronic state:  partially filled degenerate orbitals.
 Alpha  occ. eigenvalues --  -10.27987  -0.64169  -0.31184  -0.24611
 Alpha virt. eigenvalues --   -0.13244   0.12289   0.51497   0.54170   0.56326
 Alpha virt. eigenvalues --    0.63481   0.84690   1.64633   1.65115   1.66068
 Alpha virt. eigenvalues --    1.66279   2.07249   3.86045
  Beta  occ. eigenvalues --  -10.26594  -0.59908  -0.29016
  Beta virt. eigenvalues --   -0.11362  -0.06355   0.13271   0.55239   0.57383
  Beta virt. eigenvalues --    0.58974   0.65312   0.86267   1.66918   1.71495
  Beta virt. eigenvalues --    1.73162   1.73290   2.10129   3.89667
          Condensed to atoms (all electrons):
               1          2
     1  C    5.959287   0.162353
     2  H    0.162353   0.716008
          Atomic-Atomic Spin Densities.
               1          2
     1  C    1.051171  -0.013588
     2  H   -0.013588  -0.023995
 Mulliken charges and spin densities:
               1          2
     1  C   -0.121640   1.037583
     2  H    0.121640  -0.037583
 Sum of Mulliken charges =   0.00000   1.00000
 Mulliken charges and spin densities with hydrogens summed into heavy atoms:
               1          2
     1  C    0.000000   1.000000
 APT charges:
               1
     1  C   -0.029564
     2  H    0.029564
 Sum of APT charges =   0.00000
 APT charges with hydrogens summed into heavy atoms:
               1
     1  C    0.000000
 Electronic spatial extent (au):  <R**2>=             18.9156
 Charge=              0.0000 electrons
 Dipole moment (field-independent basis, Debye):
    X=              0.0000    Y=              0.0000    Z=             -1.3838  Tot=              1.3838
 Quadrupole moment (field-independent basis, Debye-Ang):
   XX=             -7.2832   YY=             -5.4103   ZZ=             -7.4628
   XY=              0.0000   XZ=              0.0000   YZ=              0.0000
 Traceless Quadrupole moment (field-independent basis, Debye-Ang):
   XX=             -0.5644   YY=              1.3085   ZZ=             -0.7440
   XY=              0.0000   XZ=              0.0000   YZ=              0.0000
 Octapole moment (field-independent basis, Debye-Ang**2):
  XXX=              0.0000  YYY=              0.0000  ZZZ=             -1.9720  XYY=              0.0000
  XXY=              0.0000  XXZ=             -0.6004  XZZ=              0.0000  YZZ=              0.0000
  YYZ=             -0.3154  XYZ=              0.0000
 Hexadecapole moment (field-independent basis, Debye-Ang**3):
 XXXX=             -7.8553 YYYY=             -4.6579 ZZZZ=            -14.1777 XXXY=              0.0000
 XXXZ=              0.0000 YYYX=              0.0000 YYYZ=              0.0000 ZZZX=              0.0000
 ZZZY=              0.0000 XXYY=             -2.0855 XXZZ=             -3.7835 YYZZ=             -3.2073
 XXYZ=              0.0000 YYXZ=              0.0000 ZZXY=              0.0000
 N-N= 2.802082819638D+00 E-N=-9.483811863784D+01  KE= 3.819694379710D+01
 Symmetry A1   KE= 3.695511297411D+01
 Symmetry A2   KE= 3.223281296131D-35
 Symmetry B1   KE= 1.241830822990D+00
 Symmetry B2   KE= 9.312239625951D-33
  Exact polarizability:   6.895   0.000   8.343   0.000   0.000  12.782
 Approx polarizability:   6.588   0.000  11.136   0.000   0.000  15.429
                          Isotropic Fermi Contact Couplings
        Atom                 a.u.       MegaHertz       Gauss      10(-4) cm-1
     1  C(13)              0.04185      47.05182      16.78926      15.69480
     2  H(1)              -0.01144     -51.14006     -18.24804     -17.05849
 --------------------------------------------------------
       Center         ----  Spin Dipole Couplings  ----
                      3XX-RR        3YY-RR        3ZZ-RR
 --------------------------------------------------------
     1   Atom        1.249592     -0.643605     -0.605987
     2   Atom       -0.010129     -0.070656      0.080785
 --------------------------------------------------------
                        XY            XZ            YZ
 --------------------------------------------------------
     1   Atom        0.000000      0.000000      0.000000
     2   Atom        0.000000      0.000000      0.000000
 --------------------------------------------------------


 ---------------------------------------------------------------------------------
              Anisotropic Spin Dipole Couplings in Principal Axis System
 ---------------------------------------------------------------------------------

       Atom             a.u.   MegaHertz   Gauss  10(-4) cm-1        Axes

              Baa    -0.6436   -86.366   -30.817   -28.808  0.0000  1.0000  0.0000
     1 C(13)  Bbb    -0.6060   -81.318   -29.016   -27.125  0.0000  0.0000  1.0000
              Bcc     1.2496   167.683    59.834    55.933  1.0000  0.0000  0.0000
 
              Baa    -0.0707   -37.698   -13.452   -12.575  0.0000  1.0000  0.0000
     2 H(1)   Bbb    -0.0101    -5.404    -1.928    -1.803  1.0000  0.0000  0.0000
              Bcc     0.0808    43.103    15.380    14.378  0.0000  0.0000  1.0000
 

 ---------------------------------------------------------------------------------

 Calling FoFJK, ICntrl=    100127 FMM=F ISym2X=1 I1Cent= 0 IOpClX= 1 NMat=1 NMatS=1 NMatT=0.
 Full mass-weighted force constant matrix:
 Low frequencies ---  -42.8621  -28.6629   -0.0014   -0.0011   -0.0009 2801.5478
 Diagonal vibrational polarizability:
        0.0000000       0.0000000       0.6356725
 Harmonic frequencies (cm**-1), IR intensities (KM/Mole), Raman scattering
 activities (A**4/AMU), depolarization ratios for plane and unpolarized
 incident light, reduced masses (AMU), force constants (mDyne/A),
 and normal coordinates:
                      1
                     SG
 Frequencies --   2801.5478
 Red. masses --      1.0848
 Frc consts  --      5.0165
 IR Inten    --    185.3943
  Atom  AN      X      Y      Z
     1   6     0.00   0.00   0.08
     2   1     0.00   0.00  -1.00

 -------------------
 - Thermochemistry -
 -------------------
 Temperature   298.150 Kelvin.  Pressure   1.00000 Atm.
 Atom     1 has atomic number  6 and mass  12.00000
 Atom     2 has atomic number  1 and mass   1.00783
 Molecular mass:    13.00783 amu.
 Principal axes and moments of inertia in atomic units:
                           1         2         3
     Eigenvalues --     0.00000   4.26287   4.26287
           X            0.00000   0.00000   1.00000
           Y            0.00000   1.00000   0.00000
           Z            1.00000   0.00000   0.00000
 This molecule is a prolate symmetric top.
 Rotational symmetry number  1.
 Rotational temperature (Kelvin)     20.31818
 Rotational constant (GHZ):         423.362771
 Zero-point vibrational energy      16757.0 (Joules/Mol)
                                    4.00501 (Kcal/Mol)
 Vibrational temperatures:   4030.80
          (Kelvin)
 
 Zero-point correction=                           0.006382 (Hartree/Particle)
 Thermal correction to Energy=                    0.008743
 Thermal correction to Enthalpy=                  0.009687
 Thermal correction to Gibbs Free Energy=        -0.010430
 Sum of electronic and zero-point Energies=            -38.472780
 Sum of electronic and thermal Energies=               -38.470420
 Sum of electronic and thermal Enthalpies=             -38.469476
 Sum of electronic and thermal Free Energies=          -38.489593
 
                     E (Thermal)             CV                S
                      KCal/Mol        Cal/Mol-Kelvin    Cal/Mol-Kelvin
 Total                    5.486              4.969             42.341
 Electronic               0.000              0.000              1.377
 Translational            0.889              2.981             33.638
 Rotational               0.592              1.987              7.325
 Vibrational              4.005              0.000              0.000
                       Q            Log10(Q)             Ln(Q)
 Total Bot       0.627554D+05          4.797651         11.046999
 Total V=0       0.541181D+08          7.733343         17.806680
 Vib (Bot)       0.115960D-02         -2.935691         -6.759679
 Vib (V=0)       0.100000D+01          0.000001          0.000001
 Electronic      0.200000D+01          0.301030          0.693147
 Translational   0.184401D+07          6.265762         14.427451
 Rotational      0.146740D+02          1.166550          2.686080
 ***** Axes restored to original set *****
 -------------------------------------------------------------------
 Center     Atomic                   Forces (Hartrees/Bohr)
 Number     Number              X              Y              Z
 -------------------------------------------------------------------
      1        6           0.000019259    0.000000000    0.000000000
      2        1          -0.000019259    0.000000000    0.000000000
 -------------------------------------------------------------------
 Cartesian Forces:  Max     0.000019259 RMS     0.000011119
 FormGI is forming the generalized inverse of G from B-inverse, IUseBI=4.

 GradGradGradGradGradGradGradGradGradGradGradGradGradGradGradGradGradGrad
 Berny optimization.
 Internal  Forces:  Max     0.000019259 RMS     0.000019259
 Search for a local minimum.
 Step number   1 out of a maximum of    2
 All quantities printed in internal units (Hartrees-Bohrs-Radians)
 Second derivative matrix not updated -- analytic derivatives used.
 The second derivative matrix:
                          R1
           R1           0.27615
 ITU=  0
     Eigenvalues ---    0.27615
 Angle between quadratic step and forces=   0.00 degrees.
 Linear search not attempted -- first point.
 Iteration  1 RMS(Cart)=  0.00004931 RMS(Int)=  0.00000000
 Iteration  2 RMS(Cart)=  0.00000000 RMS(Int)=  0.00000000
 ClnCor:  largest displacement from symmetrization is 0.00D+00 for atom     0.
 Variable       Old X    -DE/DX   Delta X   Delta X   Delta X     New X
                                 (Linear)    (Quad)   (Total)
    R1        2.14126  -0.00002   0.00000  -0.00007  -0.00007   2.14119
         Item               Value     Threshold  Converged?
 Maximum Force            0.000019     0.000450     YES
 RMS     Force            0.000019     0.000300     YES
 Maximum Displacement     0.000035     0.001800     YES
 RMS     Displacement     0.000049     0.001200     YES
 Predicted change in Energy=-6.715552D-10
 Optimization completed.
    -- Stationary point found.
                           ----------------------------
                           !   Optimized Parameters   !
                           ! (Angstroms and Degrees)  !
 --------------------------                            --------------------------
 ! Name  Definition              Value          Derivative Info.                !
 --------------------------------------------------------------------------------
 ! R1    R(1,2)                  1.1331         -DE/DX =    0.0                 !
 --------------------------------------------------------------------------------
 GradGradGradGradGradGradGradGradGradGradGradGradGradGradGradGradGradGrad

 1|1|UNPC-CBEGRAD02|Freq|UB3LYP|6-31G(d)|C1H1(2)|GPD20001|22-Nov-2021|0
 ||#N Geom=AllCheck Guess=TCheck SCRF=Check GenChk UB3LYP/6-31G(d) Freq
 ||CH OPT and FREQ Calc||0,2|C,0.3422776287,-0.35825545,0.|H,1.47538591
 13,-0.35825545,0.||Version=EM64W-G09RevD.01|HF=-38.4791627|S2=0.752163
 |S2-1=0.|S2A=0.750001|RMSD=3.037e-010|RMSF=1.112e-005|ZeroPoint=0.0063
 824|Thermal=0.0087429|Dipole=0.5444372,0.,0.|DipoleDeriv=0.4204878,0.,
 0.,0.,-0.2548161,0.,0.,0.,-0.2543624,-0.4204878,0.,0.,0.,0.2548161,0.,
 0.,0.,0.2543624|Polar=12.7823857,0.,8.3426714,0.,0.,6.8950163|PG=C*V [
 C*(H1C1)]|NImag=0||0.27615266,0.,-0.00002891,0.,0.,-0.00006464,-0.2761
 5266,0.,0.,0.27615266,0.,0.00002891,0.,0.,-0.00002891,0.,0.,0.00006464
 ,0.,0.,-0.00006464||-0.00001926,0.,0.,0.00001926,0.,0.|||@


 I FIND THAT THE THREE TRULY GREAT TIMES FOR THINKING THOUGHTS
 ARE WHEN I AM STANDING IN THE SHOWER, SITTING ON THE JOHN, OR WALKING.

                                    -- COLIN FLETCHER
 Job cpu time:       0 days  0 hours  0 minutes  6.0 seconds.
 File lengths (MBytes):  RWF=      5 Int=      0 D2E=      0 Chk=      1 Scr=      1
 Normal termination of Gaussian 09 at Mon Nov 22 14:55:58 2021.
