 Entering Link 1 = C:\G09W\l1.exe PID=     17476.
  
 Copyright (c) 1988,1990,1992,1993,1995,1998,2003,2009,2013,
            Gaussian, Inc.  All Rights Reserved.
  
 This is part of the Gaussian(R) 09 program.  It is based on
 the Gaussian(R) 03 system (copyright 2003, Gaussian, Inc.),
 the Gaussian(R) 98 system (copyright 1998, Gaussian, Inc.),
 the Gaussian(R) 94 system (copyright 1995, Gaussian, Inc.),
 the Gaussian 92(TM) system (copyright 1992, Gaussian, Inc.),
 the Gaussian 90(TM) system (copyright 1990, Gaussian, Inc.),
 the Gaussian 88(TM) system (copyright 1988, Gaussian, Inc.),
 the Gaussian 86(TM) system (copyright 1986, Carnegie Mellon
 University), and the Gaussian 82(TM) system (copyright 1983,
 Carnegie Mellon University). Gaussian is a federally registered
 trademark of Gaussian, Inc.
  
 This software contains proprietary and confidential information,
 including trade secrets, belonging to Gaussian, Inc.
  
 This software is provided under written license and may be
 used, copied, transmitted, or stored only in accord with that
 written license.
  
 The following legend is applicable only to US Government
 contracts under FAR:
  
                    RESTRICTED RIGHTS LEGEND
  
 Use, reproduction and disclosure by the US Government is
 subject to restrictions as set forth in subparagraphs (a)
 and (c) of the Commercial Computer Software - Restricted
 Rights clause in FAR 52.227-19.
  
 Gaussian, Inc.
 340 Quinnipiac St., Bldg. 40, Wallingford CT 06492
  
  
 ---------------------------------------------------------------
 Warning -- This program may not be used in any manner that
 competes with the business of Gaussian, Inc. or will provide
 assistance to any competitor of Gaussian, Inc.  The licensee
 of this program is prohibited from giving any competitor of
 Gaussian, Inc. access to this program.  By using this program,
 the user acknowledges that Gaussian, Inc. is engaged in the
 business of creating and licensing software in the field of
 computational chemistry and represents and warrants to the
 licensee that it is not a competitor of Gaussian, Inc. and that
 it will not use this program in any manner prohibited above.
 ---------------------------------------------------------------
  

 Cite this work as:
 Gaussian 09, Revision D.01,
 M. J. Frisch, G. W. Trucks, H. B. Schlegel, G. E. Scuseria, 
 M. A. Robb, J. R. Cheeseman, G. Scalmani, V. Barone, B. Mennucci, 
 G. A. Petersson, H. Nakatsuji, M. Caricato, X. Li, H. P. Hratchian, 
 A. F. Izmaylov, J. Bloino, G. Zheng, J. L. Sonnenberg, M. Hada, 
 M. Ehara, K. Toyota, R. Fukuda, J. Hasegawa, M. Ishida, T. Nakajima, 
 Y. Honda, O. Kitao, H. Nakai, T. Vreven, J. A. Montgomery, Jr., 
 J. E. Peralta, F. Ogliaro, M. Bearpark, J. J. Heyd, E. Brothers, 
 K. N. Kudin, V. N. Staroverov, T. Keith, R. Kobayashi, J. Normand, 
 K. Raghavachari, A. Rendell, J. C. Burant, S. S. Iyengar, J. Tomasi, 
 M. Cossi, N. Rega, J. M. Millam, M. Klene, J. E. Knox, J. B. Cross, 
 V. Bakken, C. Adamo, J. Jaramillo, R. Gomperts, R. E. Stratmann, 
 O. Yazyev, A. J. Austin, R. Cammi, C. Pomelli, J. W. Ochterski, 
 R. L. Martin, K. Morokuma, V. G. Zakrzewski, G. A. Voth, 
 P. Salvador, J. J. Dannenberg, S. Dapprich, A. D. Daniels, 
 O. Farkas, J. B. Foresman, J. V. Ortiz, J. Cioslowski, 
 and D. J. Fox, Gaussian, Inc., Wallingford CT, 2013.
 
 ******************************************
 Gaussian 09:  EM64W-G09RevD.01 13-Apr-2013
                22-Nov-2021 
 ******************************************
 -------------------------
 # opt freq b3lyp/6-31g(d)
 -------------------------
 1/14=-1,18=20,19=15,26=3,38=1/1,3;
 2/9=110,12=2,17=6,18=5,40=1/2;
 3/5=1,6=6,7=1,11=2,16=1,25=1,30=1,71=1,74=-5/1,2,3;
 4//1;
 5/5=2,38=5/2;
 6/7=2,8=2,9=2,10=2,28=1/1;
 7//1,2,3,16;
 1/14=-1,18=20,19=15,26=3/3(2);
 2/9=110/2;
 99//99;
 2/9=110/2;
 3/5=1,6=6,7=1,11=2,16=1,25=1,30=1,71=1,74=-5/1,2,3;
 4/5=5,16=3,69=1/1;
 5/5=2,38=5/2;
 7//1,2,3,16;
 1/14=-1,18=20,19=15,26=3/3(-5);
 2/9=110/2;
 6/7=2,8=2,9=2,10=2,19=2,28=1/1;
 99/9=1/99;
 ------------------
 GaCH3 Opt and freq
 ------------------
 Symbolic Z-matrix:
 Charge =  0 Multiplicity = 1
 Ga                   -0.85359   0.97523   0. 
 C                     0.70641   0.97523   0. 
 H                     1.06308   0.50163   0.89072 
 H                     1.06308   0.44065  -0.85552 
 H                     1.06308   1.98342  -0.03521 
 

 GradGradGradGradGradGradGradGradGradGradGradGradGradGradGradGradGradGrad
 Berny optimization.
 Initialization pass.
                           ----------------------------
                           !    Initial Parameters    !
                           ! (Angstroms and Degrees)  !
 --------------------------                            --------------------------
 ! Name  Definition              Value          Derivative Info.                !
 --------------------------------------------------------------------------------
 ! R1    R(1,2)                  1.56           estimate D2E/DX2                !
 ! R2    R(2,3)                  1.07           estimate D2E/DX2                !
 ! R3    R(2,4)                  1.07           estimate D2E/DX2                !
 ! R4    R(2,5)                  1.07           estimate D2E/DX2                !
 ! A1    A(1,2,3)              109.4712         estimate D2E/DX2                !
 ! A2    A(1,2,4)              109.4712         estimate D2E/DX2                !
 ! A3    A(1,2,5)              109.4712         estimate D2E/DX2                !
 ! A4    A(3,2,4)              109.4713         estimate D2E/DX2                !
 ! A5    A(3,2,5)              109.4712         estimate D2E/DX2                !
 ! A6    A(4,2,5)              109.4712         estimate D2E/DX2                !
 ! D1    D(3,2,5,4)            120.0            estimate D2E/DX2                !
 --------------------------------------------------------------------------------
 Trust Radius=3.00D-01 FncErr=1.00D-07 GrdErr=1.00D-06
 Number of steps in this run=     21 maximum allowed number of steps=    100.
 GradGradGradGradGradGradGradGradGradGradGradGradGradGradGradGradGradGrad

                          Input orientation:                          
 ---------------------------------------------------------------------
 Center     Atomic      Atomic             Coordinates (Angstroms)
 Number     Number       Type             X           Y           Z
 ---------------------------------------------------------------------
      1         31           0       -0.853591    0.975232    0.000000
      2          6           0        0.706409    0.975232    0.000000
      3          1           0        1.063075    0.501627    0.890723
      4          1           0        1.063075    0.440647   -0.855516
      5          1           0        1.063076    1.983423   -0.035207
 ---------------------------------------------------------------------
                    Distance matrix (angstroms):
                    1          2          3          4          5
     1  Ga   0.000000
     2  C    1.560000   0.000000
     3  H    2.165941   1.070000   0.000000
     4  H    2.165941   1.070000   1.747303   0.000000
     5  H    2.165941   1.070000   1.747303   1.747303   0.000000
 Stoichiometry    CH3Ga
 Framework group  C3V[C3(CGa),3SGV(H)]
 Deg. of freedom     3
 Full point group                 C3V     NOp   6
 Largest Abelian subgroup         CS      NOp   2
 Largest concise Abelian subgroup CS      NOp   2
                         Standard orientation:                         
 ---------------------------------------------------------------------
 Center     Atomic      Atomic             Coordinates (Angstroms)
 Number     Number       Type             X           Y           Z
 ---------------------------------------------------------------------
      1         31           0        0.000000    0.000000    0.377750
      2          6           0        0.000000    0.000000   -1.182250
      3          1           0        0.000000    1.008806   -1.538916
      4          1           0        0.873651   -0.504403   -1.538916
      5          1           0       -0.873651   -0.504403   -1.538916
 ---------------------------------------------------------------------
 Rotational constants (GHZ):    164.2463206     14.5685091     14.5685091
 Standard basis: 6-31G(d) (6D, 7F)
 There are    37 symmetry adapted cartesian basis functions of A'  symmetry.
 There are    14 symmetry adapted cartesian basis functions of A"  symmetry.
 There are    37 symmetry adapted basis functions of A'  symmetry.
 There are    14 symmetry adapted basis functions of A"  symmetry.
    51 basis functions,   123 primitive gaussians,    51 cartesian basis functions
    20 alpha electrons       20 beta electrons
       nuclear repulsion energy        95.6263406405 Hartrees.
 NAtoms=    5 NActive=    5 NUniq=    3 SFac= 2.78D+00 NAtFMM=   60 NAOKFM=F Big=F
 Integral buffers will be    131072 words long.
 Raffenetti 2 integral format.
 Two-electron integral symmetry is turned on.
 One-electron integrals computed using PRISM.
 NBasis=    51 RedAO= T EigKep=  2.82D-03  NBF=    37    14
 NBsUse=    51 1.00D-06 EigRej= -1.00D+00 NBFU=    37    14
 ExpMin= 6.13D-02 ExpMax= 4.58D+05 ExpMxC= 4.45D+03 IAcc=2 IRadAn=         4 AccDes= 0.00D+00
 Harris functional with IExCor=  402 and IRadAn=       4 diagonalized for initial guess.
 HarFok:  IExCor=  402 AccDes= 0.00D+00 IRadAn=         4 IDoV= 1 UseB2=F ITyADJ=14
 ICtDFT=  3500011 ScaDFX=  1.000000  1.000000  1.000000  1.000000
 FoFCou: FMM=F IPFlag=           0 FMFlag=      100000 FMFlg1=           0
         NFxFlg=           0 DoJE=T BraDBF=F KetDBF=T FulRan=T
         wScrn=  0.000000 ICntrl=     500 IOpCl=  0 I1Cent=   200000004 NGrid=           0
         NMat0=    1 NMatS0=      1 NMatT0=    0 NMatD0=    1 NMtDS0=    0 NMtDT0=    0
 Petite list used in FoFCou.
 Initial guess orbital symmetries:
       Occupied  (A1) (A1) (A1) (E) (E) (A1) (A1) (A1) (E) (E)
                 (A1) (E) (E) (A1) (E) (E) (E) (E) (A1) (A1)
       Virtual   (E) (E) (A1) (E) (E) (A1) (A1) (E) (E) (E) (E)
                 (E) (E) (A1) (A1) (E) (E) (A1) (A1) (E) (E) (A1)
                 (A1) (E) (E) (A1) (E) (E) (A1) (A1) (A1)
 The electronic state of the initial guess is 1-A1.
 Keep R1 ints in memory in symmetry-blocked form, NReq=1905619.
 Requested convergence on RMS density matrix=1.00D-08 within 128 cycles.
 Requested convergence on MAX density matrix=1.00D-06.
 Requested convergence on             energy=1.00D-06.
 No special actions if energy rises.
 Integral accuracy reduced to 1.0D-05 until final iterations.
 Initial convergence to 1.0D-05 achieved.  Increase integral accuracy.
 SCF Done:  E(RB3LYP) =  -1962.71233642     A.U. after   13 cycles
            NFock= 13  Conv=0.32D-08     -V/T= 2.0037

 **********************************************************************

            Population analysis using the SCF density.

 **********************************************************************

 Orbital symmetries:
       Occupied  (A1) (A1) (E) (E) (A1) (A1) (A1) (E) (E) (A1)
                 (A1) (E) (E) (E) (E) (A1) (E) (E) (A1) (A1)
       Virtual   (E) (E) (A1) (A1) (E) (E) (A1) (E) (E) (E) (E)
                 (E) (E) (A1) (A1) (A1) (E) (E) (A1) (E) (E) (A1)
                 (A1) (E) (E) (A1) (E) (E) (A1) (A1) (A1)
 The electronic state is 1-A1.
 Alpha  occ. eigenvalues -- -372.50404 -45.36111 -40.68249 -40.68249 -40.68028
 Alpha  occ. eigenvalues --  -10.15092  -5.37368  -3.75911  -3.75911  -3.75221
 Alpha  occ. eigenvalues --   -0.84536  -0.81362  -0.81362  -0.81192  -0.81192
 Alpha  occ. eigenvalues --   -0.71456  -0.44088  -0.44088  -0.39273  -0.17693
 Alpha virt. eigenvalues --   -0.03703  -0.03703   0.04173   0.11760   0.12348
 Alpha virt. eigenvalues --    0.12348   0.22273   0.23362   0.23362   0.30206
 Alpha virt. eigenvalues --    0.30206   0.31780   0.31780   0.36639   0.39078
 Alpha virt. eigenvalues --    0.59976   0.66836   0.66836   0.77746   0.88764
 Alpha virt. eigenvalues --    0.88764   1.05737   1.25392   1.73290   1.73290
 Alpha virt. eigenvalues --    2.02062   2.25243   2.25243   4.16483   4.21985
 Alpha virt. eigenvalues --   19.16793
          Condensed to atoms (all electrons):
               1          2          3          4          5
     1  Ga  30.646982   0.251942   0.000027   0.000027   0.000027
     2  C    0.251942   5.553903   0.318963   0.318963   0.318963
     3  H    0.000027   0.318963   0.484325  -0.011948  -0.011948
     4  H    0.000027   0.318963  -0.011948   0.484325  -0.011948
     5  H    0.000027   0.318963  -0.011948  -0.011948   0.484325
 Mulliken charges:
               1
     1  Ga   0.100995
     2  C   -0.762735
     3  H    0.220580
     4  H    0.220580
     5  H    0.220580
 Sum of Mulliken charges =   0.00000
 Mulliken charges with hydrogens summed into heavy atoms:
               1
     1  Ga   0.100995
     2  C   -0.100995
 Electronic spatial extent (au):  <R**2>=            136.5447
 Charge=              0.0000 electrons
 Dipole moment (field-independent basis, Debye):
    X=              0.0000    Y=              0.0000    Z=             -2.8515  Tot=              2.8515
 Quadrupole moment (field-independent basis, Debye-Ang):
   XX=            -22.5099   YY=            -22.5099   ZZ=            -28.3190
   XY=              0.0000   XZ=              0.0000   YZ=              0.0000
 Traceless Quadrupole moment (field-independent basis, Debye-Ang):
   XX=              1.9364   YY=              1.9364   ZZ=             -3.8727
   XY=              0.0000   XZ=              0.0000   YZ=              0.0000
 Octapole moment (field-independent basis, Debye-Ang**2):
  XXX=              0.0000  YYY=              0.5970  ZZZ=             -0.2108  XYY=              0.0000
  XXY=             -0.5970  XXZ=             -0.2581  XZZ=              0.0000  YZZ=              0.0000
  YYZ=             -0.2581  XYZ=              0.0000
 Hexadecapole moment (field-independent basis, Debye-Ang**3):
 XXXX=            -37.9105 YYYY=            -37.9105 ZZZZ=           -153.5682 XXXY=              0.0000
 XXXZ=              0.0000 YYYX=              0.0000 YYYZ=             -1.1308 ZZZX=              0.0000
 ZZZY=              0.0000 XXYY=            -12.6368 XXZZ=            -29.3401 YYZZ=            -29.3401
 XXYZ=              1.1308 YYXZ=              0.0000 ZZXY=              0.0000
 N-N= 9.562634064054D+01 E-N=-4.879943979725D+03  KE= 1.955471687389D+03
 Symmetry A'   KE= 1.687794893313D+03
 Symmetry A"   KE= 2.676767940758D+02
 Calling FoFJK, ICntrl=      2127 FMM=F ISym2X=1 I1Cent= 0 IOpClX= 0 NMat=1 NMatS=1 NMatT=0.
 ***** Axes restored to original set *****
 -------------------------------------------------------------------
 Center     Atomic                   Forces (Hartrees/Bohr)
 Number     Number              X              Y              Z
 -------------------------------------------------------------------
      1       31          -0.323151863   -0.000000010    0.000000001
      2        6           0.274125918    0.000000009    0.000000000
      3        1           0.016341982   -0.008229139    0.015476760
      4        1           0.016341982   -0.009288697   -0.014865024
      5        1           0.016341981    0.017517838   -0.000611736
 -------------------------------------------------------------------
 Cartesian Forces:  Max     0.323151863 RMS     0.109937883

 GradGradGradGradGradGradGradGradGradGradGradGradGradGradGradGradGradGrad
 Berny optimization.
 FormGI is forming the generalized inverse of G from B-inverse, IUseBI=4.
 Internal  Forces:  Max     0.323151863 RMS     0.098251669
 Search for a local minimum.
 Step number   1 out of a maximum of   21
 All quantities printed in internal units (Hartrees-Bohrs-Radians)
 Mixed Optimization -- RFO/linear search
 Second derivative matrix not updated -- first step.
 The second derivative matrix:
                          R1        R2        R3        R4        A1
           R1           0.53983
           R2           0.00000   0.37230
           R3           0.00000   0.00000   0.37230
           R4           0.00000   0.00000   0.00000   0.37230
           A1           0.00000   0.00000   0.00000   0.00000   0.16000
           A2           0.00000   0.00000   0.00000   0.00000   0.00000
           A3           0.00000   0.00000   0.00000   0.00000   0.00000
           A4           0.00000   0.00000   0.00000   0.00000   0.00000
           A5           0.00000   0.00000   0.00000   0.00000   0.00000
           A6           0.00000   0.00000   0.00000   0.00000   0.00000
           D1           0.00000   0.00000   0.00000   0.00000   0.00000
                          A2        A3        A4        A5        A6
           A2           0.16000
           A3           0.00000   0.16000
           A4           0.00000   0.00000   0.16000
           A5           0.00000   0.00000   0.00000   0.16000
           A6           0.00000   0.00000   0.00000   0.00000   0.16000
           D1           0.00000   0.00000   0.00000   0.00000   0.00000
                          D1
           D1           0.00499
 ITU=  0
     Eigenvalues ---    0.07389   0.16000   0.16000   0.16000   0.16000
     Eigenvalues ---    0.37230   0.37230   0.37230   0.53983
 RFO step:  Lambda=-1.54402216D-01 EMin= 7.38854630D-02
 Linear search not attempted -- first point.
 Maximum step size (   0.300) exceeded in Quadratic search.
    -- Step size scaled by   0.633
 Iteration  1 RMS(Cart)=  0.06214927 RMS(Int)=  0.02851186
 Iteration  2 RMS(Cart)=  0.02556975 RMS(Int)=  0.00016542
 Iteration  3 RMS(Cart)=  0.00000008 RMS(Int)=  0.00016542
 ClnCor:  largest displacement from symmetrization is 4.91D-03 for atom     5.
 Variable       Old X    -DE/DX   Delta X   Delta X   Delta X     New X
                                 (Linear)    (Quad)   (Total)
    R1        2.94797   0.32315   0.00000   0.29456   0.29456   3.24253
    R2        2.02201   0.02197   0.00000   0.02640   0.02760   2.04961
    R3        2.02201   0.02197   0.00000   0.02640   0.02760   2.04961
    R4        2.02201   0.02197   0.00000   0.02640   0.02760   2.04961
    A1        1.91063   0.00537   0.00000   0.01342   0.01292   1.92355
    A2        1.91063   0.00537   0.00000   0.01342   0.01292   1.92355
    A3        1.91063   0.00537   0.00000   0.01342   0.01292   1.92355
    A4        1.91063  -0.00107   0.00000  -0.00738  -0.01310   1.89754
    A5        1.91063  -0.00752   0.00000  -0.01644  -0.01310   1.89754
    A6        1.91063  -0.00752   0.00000  -0.01644  -0.01310   1.89754
    D1        2.09440  -0.01053   0.00000  -0.02918  -0.03129   2.06311
         Item               Value     Threshold  Converged?
 Maximum Force            0.323152     0.000450     NO 
 RMS     Force            0.098252     0.000300     NO 
 Maximum Displacement     0.256483     0.001800     NO 
 RMS     Displacement     0.087249     0.001200     NO 
 Predicted change in Energy=-7.382717D-02
 GradGradGradGradGradGradGradGradGradGradGradGradGradGradGradGradGradGrad

                          Input orientation:                          
 ---------------------------------------------------------------------
 Center     Atomic      Atomic             Coordinates (Angstroms)
 Number     Number       Type             X           Y           Z
 ---------------------------------------------------------------------
      1         31           0       -0.989316    0.975232    0.000000
      2          6           0        0.726557    0.975232    0.000000
      3          1           0        1.101275    0.497395    0.898682
      4          1           0        1.101275    0.435870   -0.863161
      5          1           0        1.101275    1.992432   -0.035521
 ---------------------------------------------------------------------
                    Distance matrix (angstroms):
                    1          2          3          4          5
     1  Ga   0.000000
     2  C    1.715873   0.000000
     3  H    2.325195   1.084607   0.000000
     4  H    2.325195   1.084607   1.762916   0.000000
     5  H    2.325195   1.084607   1.762916   1.762916   0.000000
 Stoichiometry    CH3Ga
 Framework group  C3V[C3(CGa),3SGV(H)]
 Deg. of freedom     3
 Full point group                 C3V     NOp   6
 Largest Abelian subgroup         CS      NOp   2
 Largest concise Abelian subgroup CS      NOp   2
                         Standard orientation:                         
 ---------------------------------------------------------------------
 Center     Atomic      Atomic             Coordinates (Angstroms)
 Number     Number       Type             X           Y           Z
 ---------------------------------------------------------------------
      1         31           0        0.000000    0.000000    0.414175
      2          6           0        0.000000    0.000000   -1.301698
      3          1           0        0.000000    1.017820   -1.676416
      4          1           0        0.881458   -0.508910   -1.676416
      5          1           0       -0.881458   -0.508910   -1.676416
 ---------------------------------------------------------------------
 Rotational constants (GHZ):    161.3498809     12.1824517     12.1824517
 Standard basis: 6-31G(d) (6D, 7F)
 There are    37 symmetry adapted cartesian basis functions of A'  symmetry.
 There are    14 symmetry adapted cartesian basis functions of A"  symmetry.
 There are    37 symmetry adapted basis functions of A'  symmetry.
 There are    14 symmetry adapted basis functions of A"  symmetry.
    51 basis functions,   123 primitive gaussians,    51 cartesian basis functions
    20 alpha electrons       20 beta electrons
       nuclear repulsion energy        88.2105885647 Hartrees.
 NAtoms=    5 NActive=    5 NUniq=    3 SFac= 2.78D+00 NAtFMM=   60 NAOKFM=F Big=F
 Integral buffers will be    131072 words long.
 Raffenetti 2 integral format.
 Two-electron integral symmetry is turned on.
 One-electron integrals computed using PRISM.
 NBasis=    51 RedAO= T EigKep=  2.84D-03  NBF=    37    14
 NBsUse=    51 1.00D-06 EigRej= -1.00D+00 NBFU=    37    14
 Initial guess from the checkpoint file:  "C:\Work\Gau-17476.chk"
 B after Tr=     0.000000    0.000000    0.000000
         Rot=    1.000000    0.000000    0.000000    0.000000 Ang=   0.00 deg.
 Initial guess orbital symmetries:
       Occupied  (A1) (A1) (E) (E) (A1) (A1) (A1) (E) (E) (A1)
                 (A1) (E) (E) (E) (E) (A1) (E) (E) (A1) (A1)
       Virtual   (?A) (?A) (?A) (?A) (?A) (?A) (?A) (?A) (?A) (?A)
                 (?A) (?A) (?A) (?A) (?A) (?A) (?A) (?A) (?A) (?A)
                 (?A) (?A) (?A) (?A) (?A) (?A) (?A) (?A) (?A) (?A)
                 (?A)
 ExpMin= 6.13D-02 ExpMax= 4.58D+05 ExpMxC= 4.45D+03 IAcc=2 IRadAn=         4 AccDes= 0.00D+00
 Harris functional with IExCor=  402 and IRadAn=       4 diagonalized for initial guess.
 HarFok:  IExCor=  402 AccDes= 0.00D+00 IRadAn=         4 IDoV= 1 UseB2=F ITyADJ=14
 ICtDFT=  3500011 ScaDFX=  1.000000  1.000000  1.000000  1.000000
 FoFCou: FMM=F IPFlag=           0 FMFlag=      100000 FMFlg1=           0
         NFxFlg=           0 DoJE=T BraDBF=F KetDBF=T FulRan=T
         wScrn=  0.000000 ICntrl=     500 IOpCl=  0 I1Cent=   200000004 NGrid=           0
         NMat0=    1 NMatS0=      1 NMatT0=    0 NMatD0=    1 NMtDS0=    0 NMtDT0=    0
 Petite list used in FoFCou.
 Keep R1 ints in memory in symmetry-blocked form, NReq=1905451.
 Requested convergence on RMS density matrix=1.00D-08 within 128 cycles.
 Requested convergence on MAX density matrix=1.00D-06.
 Requested convergence on             energy=1.00D-06.
 No special actions if energy rises.
 Integral accuracy reduced to 1.0D-05 until final iterations.
 Initial convergence to 1.0D-05 achieved.  Increase integral accuracy.
 SCF Done:  E(RB3LYP) =  -1962.78131829     A.U. after   13 cycles
            NFock= 13  Conv=0.59D-08     -V/T= 2.0040
 Calling FoFJK, ICntrl=      2127 FMM=F ISym2X=1 I1Cent= 0 IOpClX= 0 NMat=1 NMatS=1 NMatT=0.
 ***** Axes restored to original set *****
 -------------------------------------------------------------------
 Center     Atomic                   Forces (Hartrees/Bohr)
 Number     Number              X              Y              Z
 -------------------------------------------------------------------
      1       31          -0.149735865   -0.000000005    0.000000000
      2        6           0.122037103    0.000000004    0.000000000
      3        1           0.009232921   -0.003962350    0.007452097
      4        1           0.009232921   -0.004472530   -0.007157545
      5        1           0.009232921    0.008434881   -0.000294553
 -------------------------------------------------------------------
 Cartesian Forces:  Max     0.149735865 RMS     0.050188529

 GradGradGradGradGradGradGradGradGradGradGradGradGradGradGradGradGradGrad
 Berny optimization.
 Using GEDIIS/GDIIS optimizer.
 FormGI is forming the generalized inverse of G from B-inverse, IUseBI=4.
 Internal  Forces:  Max     0.149735865 RMS     0.045634932
 Search for a local minimum.
 Step number   2 out of a maximum of   21
 All quantities printed in internal units (Hartrees-Bohrs-Radians)
 Mixed Optimization -- RFO/linear search
 Update second derivatives using D2CorX and points    1    2
 DE= -6.90D-02 DEPred=-7.38D-02 R= 9.34D-01
 TightC=F SS=  1.41D+00  RLast= 3.02D-01 DXNew= 5.0454D-01 9.0521D-01
 Trust test= 9.34D-01 RLast= 3.02D-01 DXMaxT set to 5.05D-01
 The second derivative matrix:
                          R1        R2        R3        R4        A1
           R1           0.58681
           R2           0.00189   0.37235
           R3           0.00189   0.00005   0.37235
           R4           0.00189   0.00005   0.00005   0.37235
           A1          -0.00002  -0.00001  -0.00001  -0.00001   0.15999
           A2          -0.00002  -0.00001  -0.00001  -0.00001  -0.00001
           A3          -0.00002  -0.00001  -0.00001  -0.00001  -0.00001
           A4           0.00593   0.00039   0.00039   0.00039   0.00008
           A5          -0.00235  -0.00013  -0.00013  -0.00013  -0.00002
           A6          -0.00235  -0.00013  -0.00013  -0.00013  -0.00002
           D1          -0.01367  -0.00086  -0.00086  -0.00086  -0.00016
                          A2        A3        A4        A5        A6
           A2           0.15999
           A3          -0.00001   0.15999
           A4           0.00008   0.00008   0.15991
           A5          -0.00002  -0.00002  -0.00008   0.16006
           A6          -0.00002  -0.00002  -0.00008   0.00006   0.16006
           D1          -0.00016  -0.00016   0.00002   0.00022   0.00022
                          D1
           D1           0.00534
 ITU=  1  0
 Use linear search instead of GDIIS.
 Linear search step of   0.600 exceeds DXMaxT=   0.505 but not scaled.
 Quartic linear search produced a step of  2.00000.
 Iteration  1 RMS(Cart)=  0.07234359 RMS(Int)=  0.11732891
 Iteration  2 RMS(Cart)=  0.05416947 RMS(Int)=  0.05702601
 Iteration  3 RMS(Cart)=  0.05100037 RMS(Int)=  0.00077782
 Iteration  4 RMS(Cart)=  0.00000004 RMS(Int)=  0.00077782
 ClnCor:  largest displacement from symmetrization is 6.15D-04 for atom     5.
 Variable       Old X    -DE/DX   Delta X   Delta X   Delta X     New X
                                 (Linear)    (Quad)   (Total)
    R1        3.24253   0.14974   0.58912   0.00000   0.58912   3.83165
    R2        2.04961   0.01111   0.05521   0.00000   0.05505   2.10466
    R3        2.04961   0.01111   0.05521   0.00000   0.05505   2.10466
    R4        2.04961   0.01111   0.05521   0.00000   0.05505   2.10466
    A1        1.92355   0.00331   0.02584   0.00000   0.02596   1.94951
    A2        1.92355   0.00331   0.02584   0.00000   0.02596   1.94951
    A3        1.92355   0.00331   0.02584   0.00000   0.02596   1.94951
    A4        1.89754  -0.00076  -0.02619   0.00000  -0.02733   1.87020
    A5        1.89754  -0.00471  -0.02619   0.00000  -0.02733   1.87020
    A6        1.89754  -0.00471  -0.02619   0.00000  -0.02733   1.87020
    D1        2.06311  -0.00625  -0.06258   0.00000  -0.06068   2.00242
         Item               Value     Threshold  Converged?
 Maximum Force            0.149736     0.000450     NO 
 RMS     Force            0.045635     0.000300     NO 
 Maximum Displacement     0.513270     0.001800     NO 
 RMS     Displacement     0.174808     0.001200     NO 
 Predicted change in Energy=-1.357132D-02
 GradGradGradGradGradGradGradGradGradGradGradGradGradGradGradGradGradGrad

                          Input orientation:                          
 ---------------------------------------------------------------------
 Center     Atomic      Atomic             Coordinates (Angstroms)
 Number     Number       Type             X           Y           Z
 ---------------------------------------------------------------------
      1         31           0       -1.260927    0.975232    0.000000
      2          6           0        0.766693    0.975232    0.000000
      3          1           0        1.178471    0.489413    0.913693
      4          1           0        1.178471    0.426861   -0.877578
      5          1           0        1.178471    2.009423   -0.036115
 ---------------------------------------------------------------------
                    Distance matrix (angstroms):
                    1          2          3          4          5
     1  Ga   0.000000
     2  C    2.027620   0.000000
     3  H    2.649815   1.113740   0.000000
     4  H    2.649815   1.113740   1.792363   0.000000
     5  H    2.649815   1.113740   1.792363   1.792363   0.000000
 Stoichiometry    CH3Ga
 Framework group  C3V[C3(CGa),3SGV(H)]
 Deg. of freedom     3
 Full point group                 C3V     NOp   6
 Largest Abelian subgroup         CS      NOp   2
 Largest concise Abelian subgroup CS      NOp   2
                         Standard orientation:                         
 ---------------------------------------------------------------------
 Center     Atomic      Atomic             Coordinates (Angstroms)
 Number     Number       Type             X           Y           Z
 ---------------------------------------------------------------------
      1         31           0        0.000000    0.000000    0.487098
      2          6           0        0.000000    0.000000   -1.540522
      3          1           0        0.000000    1.034821   -1.952301
      4          1           0        0.896181   -0.517411   -1.952301
      5          1           0       -0.896181   -0.517411   -1.952301
 ---------------------------------------------------------------------
 Rotational constants (GHZ):    156.0918749      8.8709639      8.8709639
 Standard basis: 6-31G(d) (6D, 7F)
 There are    37 symmetry adapted cartesian basis functions of A'  symmetry.
 There are    14 symmetry adapted cartesian basis functions of A"  symmetry.
 There are    37 symmetry adapted basis functions of A'  symmetry.
 There are    14 symmetry adapted basis functions of A"  symmetry.
    51 basis functions,   123 primitive gaussians,    51 cartesian basis functions
    20 alpha electrons       20 beta electrons
       nuclear repulsion energy        76.5536701572 Hartrees.
 NAtoms=    5 NActive=    5 NUniq=    3 SFac= 2.78D+00 NAtFMM=   60 NAOKFM=F Big=F
 Integral buffers will be    131072 words long.
 Raffenetti 2 integral format.
 Two-electron integral symmetry is turned on.
 One-electron integrals computed using PRISM.
 NBasis=    51 RedAO= T EigKep=  2.83D-03  NBF=    37    14
 NBsUse=    51 1.00D-06 EigRej= -1.00D+00 NBFU=    37    14
 Initial guess from the checkpoint file:  "C:\Work\Gau-17476.chk"
 B after Tr=     0.000000    0.000000    0.000000
         Rot=    1.000000    0.000000    0.000000    0.000000 Ang=   0.00 deg.
 Initial guess orbital symmetries:
       Occupied  (A1) (A1) (E) (E) (A1) (A1) (A1) (E) (E) (A1)
                 (A1) (E) (E) (E) (E) (A1) (E) (E) (A1) (A1)
       Virtual   (?A) (?A) (?A) (?A) (?A) (?A) (?A) (?A) (?A) (?A)
                 (?A) (?A) (?A) (?A) (?A) (?A) (?A) (?A) (?A) (?A)
                 (?A) (?A) (?A) (?A) (?A) (?A) (?A) (?A) (?A) (?A)
                 (?A)
 ExpMin= 6.13D-02 ExpMax= 4.58D+05 ExpMxC= 4.45D+03 IAcc=2 IRadAn=         4 AccDes= 0.00D+00
 Harris functional with IExCor=  402 and IRadAn=       4 diagonalized for initial guess.
 HarFok:  IExCor=  402 AccDes= 0.00D+00 IRadAn=         4 IDoV= 1 UseB2=F ITyADJ=14
 ICtDFT=  3500011 ScaDFX=  1.000000  1.000000  1.000000  1.000000
 FoFCou: FMM=F IPFlag=           0 FMFlag=      100000 FMFlg1=           0
         NFxFlg=           0 DoJE=T BraDBF=F KetDBF=T FulRan=T
         wScrn=  0.000000 ICntrl=     500 IOpCl=  0 I1Cent=   200000004 NGrid=           0
         NMat0=    1 NMatS0=      1 NMatT0=    0 NMatD0=    1 NMtDS0=    0 NMtDT0=    0
 Petite list used in FoFCou.
 Keep R1 ints in memory in symmetry-blocked form, NReq=1905057.
 Requested convergence on RMS density matrix=1.00D-08 within 128 cycles.
 Requested convergence on MAX density matrix=1.00D-06.
 Requested convergence on             energy=1.00D-06.
 No special actions if energy rises.
 Integral accuracy reduced to 1.0D-05 until final iterations.
 Initial convergence to 1.0D-05 achieved.  Increase integral accuracy.
 SCF Done:  E(RB3LYP) =  -1962.81901309     A.U. after   13 cycles
            NFock= 13  Conv=0.26D-08     -V/T= 2.0042
 Calling FoFJK, ICntrl=      2127 FMM=F ISym2X=1 I1Cent= 0 IOpClX= 0 NMat=1 NMatS=1 NMatT=0.
 ***** Axes restored to original set *****
 -------------------------------------------------------------------
 Center     Atomic                   Forces (Hartrees/Bohr)
 Number     Number              X              Y              Z
 -------------------------------------------------------------------
      1       31          -0.004529400    0.000000000    0.000000000
      2        6           0.011658169    0.000000000    0.000000000
      3        1          -0.002376257    0.003600718   -0.006771966
      4        1          -0.002376257    0.004064335    0.006504297
      5        1          -0.002376256   -0.007665054    0.000267670
 -------------------------------------------------------------------
 Cartesian Forces:  Max     0.011658169 RMS     0.004829370

 GradGradGradGradGradGradGradGradGradGradGradGradGradGradGradGradGradGrad
 Berny optimization.
 Using GEDIIS/GDIIS optimizer.
 FormGI is forming the generalized inverse of G from B-inverse, IUseBI=4.
 Internal  Forces:  Max     0.008004819 RMS     0.004413239
 Search for a local minimum.
 Step number   3 out of a maximum of   21
 All quantities printed in internal units (Hartrees-Bohrs-Radians)
 Mixed Optimization -- RFO/linear search
 Update second derivatives using D2CorX and points    2    3
 The second derivative matrix:
                          R1        R2        R3        R4        A1
           R1           0.24707
           R2          -0.00304   0.37419
           R3          -0.00304   0.00189   0.37419
           R4          -0.00304   0.00189   0.00189   0.37419
           A1          -0.00215   0.00018   0.00018   0.00018   0.16001
           A2          -0.00215   0.00018   0.00018   0.00018   0.00001
           A3          -0.00215   0.00018   0.00018   0.00018   0.00001
           A4           0.00621   0.00033   0.00033   0.00033   0.00007
           A5           0.00052  -0.00042  -0.00042  -0.00042  -0.00004
           A6           0.00052  -0.00042  -0.00042  -0.00042  -0.00004
           D1          -0.00856  -0.00116  -0.00116  -0.00116  -0.00018
                          A2        A3        A4        A5        A6
           A2           0.16001
           A3           0.00001   0.16001
           A4           0.00007   0.00007   0.15991
           A5          -0.00004  -0.00004  -0.00007   0.16009
           A6          -0.00004  -0.00004  -0.00007   0.00009   0.16009
           D1          -0.00018  -0.00018   0.00003   0.00025   0.00025
                          D1
           D1           0.00534
 ITU=  0  1  0
 Use linear search instead of GDIIS.
     Eigenvalues ---    0.07908   0.16000   0.16000   0.16000   0.16025
     Eigenvalues ---    0.24688   0.37230   0.37230   0.37819
 RFO step:  Lambda=-5.95422899D-04 EMin= 7.90845283D-02
 Quartic linear search produced a step of  0.03433.
 Iteration  1 RMS(Cart)=  0.01437100 RMS(Int)=  0.00006137
 Iteration  2 RMS(Cart)=  0.00003224 RMS(Int)=  0.00003570
 Iteration  3 RMS(Cart)=  0.00000000 RMS(Int)=  0.00003570
 ClnCor:  largest displacement from symmetrization is 5.29D-04 for atom     5.
 Variable       Old X    -DE/DX   Delta X   Delta X   Delta X     New X
                                 (Linear)    (Quad)   (Total)
    R1        3.83165   0.00453   0.02023   0.00786   0.02809   3.85973
    R2        2.10466  -0.00800   0.00189  -0.02221  -0.02045   2.08421
    R3        2.10466  -0.00800   0.00189  -0.02221  -0.02045   2.08421
    R4        2.10466  -0.00800   0.00189  -0.02221  -0.02045   2.08421
    A1        1.94951   0.00038   0.00089   0.00413   0.00508   1.95459
    A2        1.94951   0.00038   0.00089   0.00413   0.00508   1.95459
    A3        1.94951   0.00038   0.00089   0.00413   0.00508   1.95459
    A4        1.87020  -0.00011  -0.00094  -0.00503  -0.00551   1.86470
    A5        1.87020  -0.00056  -0.00094  -0.00417  -0.00551   1.86470
    A6        1.87020  -0.00056  -0.00094  -0.00417  -0.00551   1.86470
    D1        2.00242  -0.00066  -0.00208  -0.00981  -0.01154   1.99088
         Item               Value     Threshold  Converged?
 Maximum Force            0.008005     0.000450     NO 
 RMS     Force            0.004413     0.000300     NO 
 Maximum Displacement     0.023795     0.001800     NO 
 RMS     Displacement     0.014437     0.001200     NO 
 Predicted change in Energy=-2.851922D-04
 GradGradGradGradGradGradGradGradGradGradGradGradGradGradGradGradGradGrad

                          Input orientation:                          
 ---------------------------------------------------------------------
 Center     Atomic      Atomic             Coordinates (Angstroms)
 Number     Number       Type             X           Y           Z
 ---------------------------------------------------------------------
      1         31           0       -1.273519    0.975232    0.000000
      2          6           0        0.768964    0.975232    0.000000
      3          1           0        1.181944    0.495112    0.902974
      4          1           0        1.181944    0.433294   -0.867283
      5          1           0        1.181944    1.997291   -0.035691
 ---------------------------------------------------------------------
                    Distance matrix (angstroms):
                    1          2          3          4          5
     1  Ga   0.000000
     2  C    2.042483   0.000000
     3  H    2.659921   1.102919   0.000000
     4  H    2.659921   1.102919   1.771337   0.000000
     5  H    2.659921   1.102919   1.771337   1.771337   0.000000
 Stoichiometry    CH3Ga
 Framework group  C3V[C3(CGa),3SGV(H)]
 Deg. of freedom     3
 Full point group                 C3V     NOp   6
 Largest Abelian subgroup         CS      NOp   2
 Largest concise Abelian subgroup CS      NOp   2
                         Standard orientation:                         
 ---------------------------------------------------------------------
 Center     Atomic      Atomic             Coordinates (Angstroms)
 Number     Number       Type             X           Y           Z
 ---------------------------------------------------------------------
      1         31           0        0.000000    0.000000    0.490532
      2          6           0        0.000000    0.000000   -1.551951
      3          1           0        0.000000    1.022682   -1.964931
      4          1           0        0.885668   -0.511341   -1.964931
      5          1           0       -0.885668   -0.511341   -1.964931
 ---------------------------------------------------------------------
 Rotational constants (GHZ):    159.8195302      8.7551072      8.7551072
 Standard basis: 6-31G(d) (6D, 7F)
 There are    37 symmetry adapted cartesian basis functions of A'  symmetry.
 There are    14 symmetry adapted cartesian basis functions of A"  symmetry.
 There are    37 symmetry adapted basis functions of A'  symmetry.
 There are    14 symmetry adapted basis functions of A"  symmetry.
    51 basis functions,   123 primitive gaussians,    51 cartesian basis functions
    20 alpha electrons       20 beta electrons
       nuclear repulsion energy        76.2242869854 Hartrees.
 NAtoms=    5 NActive=    5 NUniq=    3 SFac= 2.78D+00 NAtFMM=   60 NAOKFM=F Big=F
 Integral buffers will be    131072 words long.
 Raffenetti 2 integral format.
 Two-electron integral symmetry is turned on.
 One-electron integrals computed using PRISM.
 NBasis=    51 RedAO= T EigKep=  2.83D-03  NBF=    37    14
 NBsUse=    51 1.00D-06 EigRej= -1.00D+00 NBFU=    37    14
 Initial guess from the checkpoint file:  "C:\Work\Gau-17476.chk"
 B after Tr=     0.000000    0.000000    0.000000
         Rot=    1.000000    0.000000    0.000000    0.000000 Ang=   0.00 deg.
 Initial guess orbital symmetries:
       Occupied  (A1) (A1) (E) (E) (A1) (A1) (A1) (E) (E) (A1)
                 (E) (E) (A1) (E) (E) (A1) (E) (E) (A1) (A1)
       Virtual   (?A) (?A) (?A) (?A) (?A) (?A) (?A) (?A) (?A) (?A)
                 (?A) (?A) (?A) (?A) (?A) (?A) (?A) (?A) (?A) (?A)
                 (?A) (?A) (?A) (?A) (?A) (?A) (?A) (?A) (?A) (?A)
                 (?A)
 ExpMin= 6.13D-02 ExpMax= 4.58D+05 ExpMxC= 4.45D+03 IAcc=2 IRadAn=         4 AccDes= 0.00D+00
 Harris functional with IExCor=  402 and IRadAn=       4 diagonalized for initial guess.
 HarFok:  IExCor=  402 AccDes= 0.00D+00 IRadAn=         4 IDoV= 1 UseB2=F ITyADJ=14
 ICtDFT=  3500011 ScaDFX=  1.000000  1.000000  1.000000  1.000000
 FoFCou: FMM=F IPFlag=           0 FMFlag=      100000 FMFlg1=           0
         NFxFlg=           0 DoJE=T BraDBF=F KetDBF=T FulRan=T
         wScrn=  0.000000 ICntrl=     500 IOpCl=  0 I1Cent=   200000004 NGrid=           0
         NMat0=    1 NMatS0=      1 NMatT0=    0 NMatD0=    1 NMtDS0=    0 NMtDT0=    0
 Petite list used in FoFCou.
 Keep R1 ints in memory in symmetry-blocked form, NReq=1905016.
 Requested convergence on RMS density matrix=1.00D-08 within 128 cycles.
 Requested convergence on MAX density matrix=1.00D-06.
 Requested convergence on             energy=1.00D-06.
 No special actions if energy rises.
 Integral accuracy reduced to 1.0D-05 until final iterations.
 Initial convergence to 1.0D-05 achieved.  Increase integral accuracy.
 SCF Done:  E(RB3LYP) =  -1962.81938794     A.U. after   10 cycles
            NFock= 10  Conv=0.53D-08     -V/T= 2.0042
 Calling FoFJK, ICntrl=      2127 FMM=F ISym2X=1 I1Cent= 0 IOpClX= 0 NMat=1 NMatS=1 NMatT=0.
 ***** Axes restored to original set *****
 -------------------------------------------------------------------
 Center     Atomic                   Forces (Hartrees/Bohr)
 Number     Number              X              Y              Z
 -------------------------------------------------------------------
      1       31          -0.001155414    0.000000000    0.000000000
      2        6           0.003578937    0.000000000    0.000000000
      3        1          -0.000807841    0.000549866   -0.001034147
      4        1          -0.000807841    0.000620665    0.000993271
      5        1          -0.000807841   -0.001170530    0.000040876
 -------------------------------------------------------------------
 Cartesian Forces:  Max     0.003578937 RMS     0.001160949

 GradGradGradGradGradGradGradGradGradGradGradGradGradGradGradGradGradGrad
 Berny optimization.
 Using GEDIIS/GDIIS optimizer.
 FormGI is forming the generalized inverse of G from B-inverse, IUseBI=4.
 Internal  Forces:  Max     0.001388526 RMS     0.000824572
 Search for a local minimum.
 Step number   4 out of a maximum of   21
 All quantities printed in internal units (Hartrees-Bohrs-Radians)
 Mixed Optimization -- En-DIIS/RFO-DIIS
 Update second derivatives using D2CorX and points    3    4
 DE= -3.75D-04 DEPred=-2.85D-04 R= 1.31D+00
 TightC=F SS=  1.41D+00  RLast= 4.84D-02 DXNew= 8.4853D-01 1.4527D-01
 Trust test= 1.31D+00 RLast= 4.84D-02 DXMaxT set to 5.05D-01
 The second derivative matrix:
                          R1        R2        R3        R4        A1
           R1           0.19611
           R2           0.03381   0.37067
           R3           0.03381  -0.00163   0.37067
           R4           0.03381  -0.00163  -0.00163   0.37067
           A1          -0.00610   0.00137   0.00137   0.00137   0.15982
           A2          -0.00610   0.00137   0.00137   0.00137  -0.00018
           A3          -0.00610   0.00137   0.00137   0.00137  -0.00018
           A4           0.01248  -0.00558  -0.00558  -0.00558   0.00066
           A5           0.00380   0.00061   0.00061   0.00061  -0.00003
           A6           0.00380   0.00061   0.00061   0.00061  -0.00003
           D1          -0.01243   0.00850   0.00850   0.00850  -0.00097
                          A2        A3        A4        A5        A6
           A2           0.15982
           A3          -0.00018   0.15982
           A4           0.00066   0.00066   0.15922
           A5          -0.00003  -0.00003  -0.00067   0.16038
           A6          -0.00003  -0.00003  -0.00067   0.00038   0.16038
           D1          -0.00097  -0.00097   0.00010   0.00150   0.00150
                          D1
           D1           0.00709
 ITU=  1  0  1  0
 Use linear search instead of GDIIS.
     Eigenvalues ---    0.08079   0.16000   0.16000   0.16000   0.16127
     Eigenvalues ---    0.17809   0.37230   0.37230   0.38568
 RFO step:  Lambda=-1.02432922D-05 EMin= 8.07949605D-02
 Quartic linear search produced a step of  0.19832.
 Iteration  1 RMS(Cart)=  0.00225523 RMS(Int)=  0.00000810
 Iteration  2 RMS(Cart)=  0.00000455 RMS(Int)=  0.00000641
 Iteration  3 RMS(Cart)=  0.00000000 RMS(Int)=  0.00000641
 ClnCor:  largest displacement from symmetrization is 5.26D-05 for atom     5.
 Variable       Old X    -DE/DX   Delta X   Delta X   Delta X     New X
                                 (Linear)    (Quad)   (Total)
    R1        3.85973   0.00116   0.00557   0.00238   0.00795   3.86769
    R2        2.08421  -0.00139  -0.00406  -0.00045  -0.00452   2.07970
    R3        2.08421  -0.00139  -0.00406  -0.00045  -0.00452   2.07970
    R4        2.08421  -0.00139  -0.00406  -0.00045  -0.00452   2.07970
    A1        1.95459  -0.00019   0.00101  -0.00286  -0.00185   1.95275
    A2        1.95459  -0.00019   0.00101  -0.00286  -0.00185   1.95275
    A3        1.95459  -0.00019   0.00101  -0.00286  -0.00185   1.95275
    A4        1.86470   0.00006  -0.00109   0.00306   0.00201   1.86670
    A5        1.86470   0.00027  -0.00109   0.00314   0.00201   1.86670
    A6        1.86470   0.00027  -0.00109   0.00314   0.00201   1.86670
    D1        1.99088   0.00032  -0.00229   0.00643   0.00418   1.99506
         Item               Value     Threshold  Converged?
 Maximum Force            0.001389     0.000450     NO 
 RMS     Force            0.000825     0.000300     NO 
 Maximum Displacement     0.004745     0.001800     NO 
 RMS     Displacement     0.002263     0.001200     NO 
 Predicted change in Energy=-1.599089D-05
 GradGradGradGradGradGradGradGradGradGradGradGradGradGradGradGradGradGrad

                          Input orientation:                          
 ---------------------------------------------------------------------
 Center     Atomic      Atomic             Coordinates (Angstroms)
 Number     Number       Type             X           Y           Z
 ---------------------------------------------------------------------
      1         31           0       -1.275216    0.975232    0.000000
      2          6           0        0.771475    0.975232    0.000000
      3          1           0        1.181676    0.495796    0.901688
      4          1           0        1.181676    0.434066   -0.866048
      5          1           0        1.181676    1.995835   -0.035640
 ---------------------------------------------------------------------
                    Distance matrix (angstroms):
                    1          2          3          4          5
     1  Ga   0.000000
     2  C    2.046691   0.000000
     3  H    2.660680   1.100529   0.000000
     4  H    2.660680   1.100529   1.768813   0.000000
     5  H    2.660680   1.100529   1.768813   1.768813   0.000000
 Stoichiometry    CH3Ga
 Framework group  C3V[C3(CGa),3SGV(H)]
 Deg. of freedom     3
 Full point group                 C3V     NOp   6
 Largest Abelian subgroup         CS      NOp   2
 Largest concise Abelian subgroup CS      NOp   2
                         Standard orientation:                         
 ---------------------------------------------------------------------
 Center     Atomic      Atomic             Coordinates (Angstroms)
 Number     Number       Type             X           Y           Z
 ---------------------------------------------------------------------
      1         31           0        0.000000    0.000000    0.491271
      2          6           0        0.000000    0.000000   -1.555421
      3          1           0        0.000000    1.021225   -1.965621
      4          1           0        0.884407   -0.510612   -1.965621
      5          1           0       -0.884407   -0.510612   -1.965621
 ---------------------------------------------------------------------
 Rotational constants (GHZ):    160.2758873      8.7276710      8.7276710
 Standard basis: 6-31G(d) (6D, 7F)
 There are    37 symmetry adapted cartesian basis functions of A'  symmetry.
 There are    14 symmetry adapted cartesian basis functions of A"  symmetry.
 There are    37 symmetry adapted basis functions of A'  symmetry.
 There are    14 symmetry adapted basis functions of A"  symmetry.
    51 basis functions,   123 primitive gaussians,    51 cartesian basis functions
    20 alpha electrons       20 beta electrons
       nuclear repulsion energy        76.1399636229 Hartrees.
 NAtoms=    5 NActive=    5 NUniq=    3 SFac= 2.78D+00 NAtFMM=   60 NAOKFM=F Big=F
 Integral buffers will be    131072 words long.
 Raffenetti 2 integral format.
 Two-electron integral symmetry is turned on.
 One-electron integrals computed using PRISM.
 NBasis=    51 RedAO= T EigKep=  2.83D-03  NBF=    37    14
 NBsUse=    51 1.00D-06 EigRej= -1.00D+00 NBFU=    37    14
 Initial guess from the checkpoint file:  "C:\Work\Gau-17476.chk"
 B after Tr=     0.000000    0.000000    0.000000
         Rot=    1.000000    0.000000    0.000000    0.000000 Ang=   0.00 deg.
 Initial guess orbital symmetries:
       Occupied  (A1) (A1) (E) (E) (A1) (A1) (A1) (E) (E) (A1)
                 (E) (E) (A1) (E) (E) (A1) (E) (E) (A1) (A1)
       Virtual   (?A) (?A) (?A) (?A) (?A) (?A) (?A) (?A) (?A) (?A)
                 (?A) (?A) (?A) (?A) (?A) (?A) (?A) (?A) (?A) (?A)
                 (?A) (?A) (?A) (?A) (?A) (?A) (?A) (?A) (?A) (?A)
                 (?A)
 Keep R1 ints in memory in symmetry-blocked form, NReq=1905002.
 Requested convergence on RMS density matrix=1.00D-08 within 128 cycles.
 Requested convergence on MAX density matrix=1.00D-06.
 Requested convergence on             energy=1.00D-06.
 No special actions if energy rises.
 SCF Done:  E(RB3LYP) =  -1962.81940611     A.U. after    8 cycles
            NFock=  8  Conv=0.14D-08     -V/T= 2.0042
 Calling FoFJK, ICntrl=      2127 FMM=F ISym2X=1 I1Cent= 0 IOpClX= 0 NMat=1 NMatS=1 NMatT=0.
 ***** Axes restored to original set *****
 -------------------------------------------------------------------
 Center     Atomic                   Forces (Hartrees/Bohr)
 Number     Number              X              Y              Z
 -------------------------------------------------------------------
      1       31          -0.000317156    0.000000000    0.000000000
      2        6           0.000920121    0.000000000    0.000000000
      3        1          -0.000200988   -0.000053724    0.000101040
      4        1          -0.000200988   -0.000060641   -0.000097046
      5        1          -0.000200988    0.000114365   -0.000003994
 -------------------------------------------------------------------
 Cartesian Forces:  Max     0.000920121 RMS     0.000271746

 GradGradGradGradGradGradGradGradGradGradGradGradGradGradGradGradGradGrad
 Berny optimization.
 Using GEDIIS/GDIIS optimizer.
 FormGI is forming the generalized inverse of G from B-inverse, IUseBI=4.
 Internal  Forces:  Max     0.000317156 RMS     0.000164759
 Search for a local minimum.
 Step number   5 out of a maximum of   21
 All quantities printed in internal units (Hartrees-Bohrs-Radians)
 Mixed Optimization -- En-DIIS/RFO-DIIS
 Swapping is turned off.
 Update second derivatives using D2CorX and points    3    4    5
 DE= -1.82D-05 DEPred=-1.60D-05 R= 1.14D+00
 TightC=F SS=  1.41D+00  RLast= 1.28D-02 DXNew= 8.4853D-01 3.8441D-02
 Trust test= 1.14D+00 RLast= 1.28D-02 DXMaxT set to 5.05D-01
 The second derivative matrix:
                          R1        R2        R3        R4        A1
           R1           0.18197
           R2           0.03936   0.38675
           R3           0.03936   0.01445   0.38675
           R4           0.03936   0.01445   0.01445   0.38675
           A1           0.00502  -0.01334  -0.01334  -0.01334   0.15694
           A2           0.00502  -0.01334  -0.01334  -0.01334  -0.00306
           A3           0.00502  -0.01334  -0.01334  -0.01334  -0.00306
           A4          -0.00406   0.01674   0.01674   0.01674   0.00469
           A5          -0.00603   0.01338   0.01338   0.01338   0.00264
           A6          -0.00603   0.01338   0.01338   0.01338   0.00264
           D1          -0.00367  -0.00401  -0.00401  -0.00401  -0.00271
                          A2        A3        A4        A5        A6
           A2           0.15694
           A3          -0.00306   0.15694
           A4           0.00469   0.00469   0.15360
           A5           0.00264   0.00264  -0.00443   0.15790
           A6           0.00264   0.00264  -0.00443  -0.00210   0.15790
           D1          -0.00271  -0.00271   0.00247   0.00315   0.00315
                          D1
           D1           0.00616
 ITU=  1  1  0  1  0
     Eigenvalues ---    0.07065   0.14726   0.16000   0.16000   0.16000
     Eigenvalues ---    0.17642   0.37230   0.37230   0.43830
 En-DIIS/RFO-DIIS IScMMF=        0 using points:     5    4
 RFO step:  Lambda=-9.16763893D-07.
 DidBck=F Rises=F RFO-DIIS coefs:    1.17653   -0.17653
 Iteration  1 RMS(Cart)=  0.00094703 RMS(Int)=  0.00000287
 Iteration  2 RMS(Cart)=  0.00000156 RMS(Int)=  0.00000236
 Iteration  3 RMS(Cart)=  0.00000000 RMS(Int)=  0.00000236
 ClnCor:  largest displacement from symmetrization is 3.14D-05 for atom     5.
 Variable       Old X    -DE/DX   Delta X   Delta X   Delta X     New X
                                 (Linear)    (Quad)   (Total)
    R1        3.86769   0.00032   0.00140   0.00099   0.00239   3.87008
    R2        2.07970   0.00003  -0.00080   0.00035  -0.00046   2.07924
    R3        2.07970   0.00003  -0.00080   0.00035  -0.00046   2.07924
    R4        2.07970   0.00003  -0.00080   0.00035  -0.00046   2.07924
    A1        1.95275  -0.00014  -0.00033  -0.00127  -0.00159   1.95116
    A2        1.95275  -0.00014  -0.00033  -0.00127  -0.00159   1.95116
    A3        1.95275  -0.00014  -0.00033  -0.00127  -0.00159   1.95116
    A4        1.86670   0.00004   0.00035   0.00134   0.00172   1.86842
    A5        1.86670   0.00020   0.00035   0.00139   0.00172   1.86842
    A6        1.86670   0.00020   0.00035   0.00139   0.00172   1.86842
    D1        1.99506   0.00024   0.00074   0.00285   0.00361   1.99867
         Item               Value     Threshold  Converged?
 Maximum Force            0.000317     0.000450     YES
 RMS     Force            0.000165     0.000300     YES
 Maximum Displacement     0.002422     0.001800     NO 
 RMS     Displacement     0.000943     0.001200     YES
 Predicted change in Energy=-1.497634D-06
 GradGradGradGradGradGradGradGradGradGradGradGradGradGradGradGradGradGrad

                          Input orientation:                          
 ---------------------------------------------------------------------
 Center     Atomic      Atomic             Coordinates (Angstroms)
 Number     Number       Type             X           Y           Z
 ---------------------------------------------------------------------
      1         31           0       -1.275200    0.975232    0.000000
      2          6           0        0.772757    0.975232    0.000000
      3          1           0        1.181246    0.495597    0.902063
      4          1           0        1.181246    0.433840   -0.866408
      5          1           0        1.181246    1.996260   -0.035655
 ---------------------------------------------------------------------
                    Distance matrix (angstroms):
                    1          2          3          4          5
     1  Ga   0.000000
     2  C    2.047957   0.000000
     3  H    2.660431   1.100287   0.000000
     4  H    2.660431   1.100287   1.769549   0.000000
     5  H    2.660431   1.100287   1.769549   1.769549   0.000000
 Stoichiometry    CH3Ga
 Framework group  C3V[C3(CGa),3SGV(H)]
 Deg. of freedom     3
 Full point group                 C3V     NOp   6
 Largest Abelian subgroup         CS      NOp   2
 Largest concise Abelian subgroup CS      NOp   2
                         Standard orientation:                         
 ---------------------------------------------------------------------
 Center     Atomic      Atomic             Coordinates (Angstroms)
 Number     Number       Type             X           Y           Z
 ---------------------------------------------------------------------
      1         31           0        0.000000    0.000000    0.491427
      2          6           0        0.000000    0.000000   -1.556530
      3          1           0        0.000000    1.021650   -1.965019
      4          1           0        0.884775   -0.510825   -1.965019
      5          1           0       -0.884775   -0.510825   -1.965019
 ---------------------------------------------------------------------
 Rotational constants (GHZ):    160.1425584      8.7206915      8.7206915
 Standard basis: 6-31G(d) (6D, 7F)
 There are    37 symmetry adapted cartesian basis functions of A'  symmetry.
 There are    14 symmetry adapted cartesian basis functions of A"  symmetry.
 There are    37 symmetry adapted basis functions of A'  symmetry.
 There are    14 symmetry adapted basis functions of A"  symmetry.
    51 basis functions,   123 primitive gaussians,    51 cartesian basis functions
    20 alpha electrons       20 beta electrons
       nuclear repulsion energy        76.1134956614 Hartrees.
 NAtoms=    5 NActive=    5 NUniq=    3 SFac= 2.78D+00 NAtFMM=   60 NAOKFM=F Big=F
 Integral buffers will be    131072 words long.
 Raffenetti 2 integral format.
 Two-electron integral symmetry is turned on.
 One-electron integrals computed using PRISM.
 NBasis=    51 RedAO= T EigKep=  2.83D-03  NBF=    37    14
 NBsUse=    51 1.00D-06 EigRej= -1.00D+00 NBFU=    37    14
 Initial guess from the checkpoint file:  "C:\Work\Gau-17476.chk"
 B after Tr=     0.000000    0.000000    0.000000
         Rot=    1.000000    0.000000    0.000000    0.000000 Ang=   0.00 deg.
 Initial guess orbital symmetries:
       Occupied  (A1) (A1) (E) (E) (A1) (A1) (A1) (E) (E) (A1)
                 (E) (E) (A1) (E) (E) (A1) (E) (E) (A1) (A1)
       Virtual   (?A) (?A) (?A) (?A) (?A) (?A) (?A) (?A) (?A) (?A)
                 (?A) (?A) (?A) (?A) (?A) (?A) (?A) (?A) (?A) (?A)
                 (?A) (?A) (?A) (?A) (?A) (?A) (?A) (?A) (?A) (?A)
                 (?A)
 Keep R1 ints in memory in symmetry-blocked form, NReq=1905002.
 Requested convergence on RMS density matrix=1.00D-08 within 128 cycles.
 Requested convergence on MAX density matrix=1.00D-06.
 Requested convergence on             energy=1.00D-06.
 No special actions if energy rises.
 SCF Done:  E(RB3LYP) =  -1962.81940805     A.U. after    7 cycles
            NFock=  7  Conv=0.17D-08     -V/T= 2.0042
 Calling FoFJK, ICntrl=      2127 FMM=F ISym2X=1 I1Cent= 0 IOpClX= 0 NMat=1 NMatS=1 NMatT=0.
 ***** Axes restored to original set *****
 -------------------------------------------------------------------
 Center     Atomic                   Forces (Hartrees/Bohr)
 Number     Number              X              Y              Z
 -------------------------------------------------------------------
      1       31          -0.000091512    0.000000000    0.000000000
      2        6           0.000189837    0.000000000    0.000000000
      3        1          -0.000032775   -0.000071171    0.000133852
      4        1          -0.000032775   -0.000080334   -0.000128562
      5        1          -0.000032775    0.000151505   -0.000005291
 -------------------------------------------------------------------
 Cartesian Forces:  Max     0.000189837 RMS     0.000088159

 GradGradGradGradGradGradGradGradGradGradGradGradGradGradGradGradGradGrad
 Berny optimization.
 Using GEDIIS/GDIIS optimizer.
 FormGI is forming the generalized inverse of G from B-inverse, IUseBI=4.
 Internal  Forces:  Max     0.000128595 RMS     0.000088358
 Search for a local minimum.
 Step number   6 out of a maximum of   21
 All quantities printed in internal units (Hartrees-Bohrs-Radians)
 Mixed Optimization -- En-DIIS/RFO-DIIS
 Swapping is turned off.
 Update second derivatives using D2CorX and points    3    4    5    6
 DE= -1.94D-06 DEPred=-1.50D-06 R= 1.30D+00
 TightC=F SS=  1.41D+00  RLast= 5.98D-03 DXNew= 8.4853D-01 1.7955D-02
 Trust test= 1.30D+00 RLast= 5.98D-03 DXMaxT set to 5.05D-01
 The second derivative matrix:
                          R1        R2        R3        R4        A1
           R1           0.17144
           R2           0.02813   0.39280
           R3           0.02813   0.02050   0.39280
           R4           0.02813   0.02050   0.02050   0.39280
           A1           0.01622  -0.00735  -0.00735  -0.00735   0.14639
           A2           0.01622  -0.00735  -0.00735  -0.00735  -0.01361
           A3           0.01622  -0.00735  -0.00735  -0.00735  -0.01361
           A4          -0.02101   0.01358   0.01358   0.01358   0.01786
           A5          -0.01569   0.00516   0.00516   0.00516   0.01319
           A6          -0.01569   0.00516   0.00516   0.00516   0.01319
           D1           0.00596  -0.01164  -0.01164  -0.01164  -0.00572
                          A2        A3        A4        A5        A6
           A2           0.14639
           A3          -0.01361   0.14639
           A4           0.01786   0.01786   0.13948
           A5           0.01319   0.01319  -0.01878   0.14796
           A6           0.01319   0.01319  -0.01878  -0.01204   0.14796
           D1          -0.00572  -0.00572   0.00125   0.00870   0.00870
                          D1
           D1           0.01599
 ITU=  1  1  1  0  1  0
     Eigenvalues ---    0.05055   0.14207   0.16000   0.16000   0.16000
     Eigenvalues ---    0.17620   0.37230   0.37230   0.44266
 En-DIIS/RFO-DIIS IScMMF=        0 using points:     6    5    4
 RFO step:  Lambda=-2.02692494D-07.
 DidBck=F Rises=F RFO-DIIS coefs:    1.72539   -0.85362    0.12823
 Iteration  1 RMS(Cart)=  0.00064858 RMS(Int)=  0.00000116
 Iteration  2 RMS(Cart)=  0.00000043 RMS(Int)=  0.00000106
 ClnCor:  largest displacement from symmetrization is 9.92D-07 for atom     5.
 Variable       Old X    -DE/DX   Delta X   Delta X   Delta X     New X
                                 (Linear)    (Quad)   (Total)
    R1        3.87008   0.00009   0.00072   0.00017   0.00089   3.87097
    R2        2.07924   0.00013   0.00025   0.00003   0.00028   2.07952
    R3        2.07924   0.00013   0.00025   0.00003   0.00028   2.07952
    R4        2.07924   0.00013   0.00025   0.00003   0.00028   2.07952
    A1        1.95116  -0.00005  -0.00092   0.00003  -0.00088   1.95028
    A2        1.95116  -0.00005  -0.00092   0.00003  -0.00088   1.95028
    A3        1.95116  -0.00005  -0.00092   0.00003  -0.00088   1.95028
    A4        1.86842   0.00002   0.00099  -0.00003   0.00095   1.86938
    A5        1.86842   0.00008   0.00099  -0.00004   0.00095   1.86938
    A6        1.86842   0.00008   0.00099  -0.00004   0.00095   1.86938
    D1        1.99867   0.00009   0.00208  -0.00008   0.00201   2.00067
         Item               Value     Threshold  Converged?
 Maximum Force            0.000129     0.000450     YES
 RMS     Force            0.000088     0.000300     YES
 Maximum Displacement     0.001137     0.001800     YES
 RMS     Displacement     0.000649     0.001200     YES
 Predicted change in Energy=-3.045204D-07
 Optimization completed.
    -- Stationary point found.
                           ----------------------------
                           !   Optimized Parameters   !
                           ! (Angstroms and Degrees)  !
 --------------------------                            --------------------------
 ! Name  Definition              Value          Derivative Info.                !
 --------------------------------------------------------------------------------
 ! R1    R(1,2)                  2.048          -DE/DX =    0.0001              !
 ! R2    R(2,3)                  1.1003         -DE/DX =    0.0001              !
 ! R3    R(2,4)                  1.1003         -DE/DX =    0.0001              !
 ! R4    R(2,5)                  1.1003         -DE/DX =    0.0001              !
 ! A1    A(1,2,3)              111.7931         -DE/DX =   -0.0001              !
 ! A2    A(1,2,4)              111.7931         -DE/DX =   -0.0001              !
 ! A3    A(1,2,5)              111.7931         -DE/DX =   -0.0001              !
 ! A4    A(3,2,4)              107.0528         -DE/DX =    0.0                 !
 ! A5    A(3,2,5)              107.0528         -DE/DX =    0.0001              !
 ! A6    A(4,2,5)              107.0528         -DE/DX =    0.0001              !
 ! D1    D(3,2,5,4)            114.5151         -DE/DX =    0.0001              !
 --------------------------------------------------------------------------------
 GradGradGradGradGradGradGradGradGradGradGradGradGradGradGradGradGradGrad

                          Input orientation:                          
 ---------------------------------------------------------------------
 Center     Atomic      Atomic             Coordinates (Angstroms)
 Number     Number       Type             X           Y           Z
 ---------------------------------------------------------------------
      1         31           0       -1.275200    0.975232    0.000000
      2          6           0        0.772757    0.975232    0.000000
      3          1           0        1.181246    0.495597    0.902063
      4          1           0        1.181246    0.433840   -0.866408
      5          1           0        1.181246    1.996260   -0.035655
 ---------------------------------------------------------------------
                    Distance matrix (angstroms):
                    1          2          3          4          5
     1  Ga   0.000000
     2  C    2.047957   0.000000
     3  H    2.660431   1.100287   0.000000
     4  H    2.660431   1.100287   1.769549   0.000000
     5  H    2.660431   1.100287   1.769549   1.769549   0.000000
 Stoichiometry    CH3Ga
 Framework group  C3V[C3(CGa),3SGV(H)]
 Deg. of freedom     3
 Full point group                 C3V     NOp   6
 Largest Abelian subgroup         CS      NOp   2
 Largest concise Abelian subgroup CS      NOp   2
                         Standard orientation:                         
 ---------------------------------------------------------------------
 Center     Atomic      Atomic             Coordinates (Angstroms)
 Number     Number       Type             X           Y           Z
 ---------------------------------------------------------------------
      1         31           0        0.000000    0.000000    0.491427
      2          6           0        0.000000    0.000000   -1.556530
      3          1           0        0.000000    1.021650   -1.965019
      4          1           0        0.884775   -0.510825   -1.965019
      5          1           0       -0.884775   -0.510825   -1.965019
 ---------------------------------------------------------------------
 Rotational constants (GHZ):    160.1425584      8.7206915      8.7206915

 **********************************************************************

            Population analysis using the SCF density.

 **********************************************************************

 Orbital symmetries:
       Occupied  (A1) (A1) (E) (E) (A1) (A1) (A1) (E) (E) (A1)
                 (E) (E) (A1) (E) (E) (A1) (E) (E) (A1) (A1)
       Virtual   (E) (E) (A1) (A1) (E) (E) (A1) (E) (E) (E) (E)
                 (E) (E) (A1) (A1) (A1) (A1) (E) (E) (E) (E) (A1)
                 (A1) (E) (E) (A1) (E) (E) (A1) (A1) (A1)
 The electronic state is 1-A1.
 Alpha  occ. eigenvalues -- -372.51525 -45.36776 -40.68950 -40.68950 -40.68780
 Alpha  occ. eigenvalues --  -10.14796  -5.37583  -3.76238  -3.76238  -3.75173
 Alpha  occ. eigenvalues --   -0.81702  -0.81702  -0.80897  -0.80821  -0.80821
 Alpha  occ. eigenvalues --   -0.66175  -0.37997  -0.37997  -0.36462  -0.19633
 Alpha virt. eigenvalues --   -0.05498  -0.05498   0.05389   0.08662   0.15931
 Alpha virt. eigenvalues --    0.15931   0.18958   0.24113   0.24113   0.27263
 Alpha virt. eigenvalues --    0.27263   0.28404   0.28404   0.30203   0.45139
 Alpha virt. eigenvalues --    0.58374   0.66473   0.68343   0.68343   0.90138
 Alpha virt. eigenvalues --    0.90138   0.99958   1.24029   1.73683   1.73683
 Alpha virt. eigenvalues --    1.99599   2.27725   2.27725   4.11991   4.26945
 Alpha virt. eigenvalues --   18.99828
          Condensed to atoms (all electrons):
               1          2          3          4          5
     1  Ga  30.517782   0.299038  -0.018379  -0.018379  -0.018379
     2  C    0.299038   5.391431   0.337768   0.337768   0.337768
     3  H   -0.018379   0.337768   0.570175  -0.022358  -0.022358
     4  H   -0.018379   0.337768  -0.022358   0.570175  -0.022358
     5  H   -0.018379   0.337768  -0.022358  -0.022358   0.570175
 Mulliken charges:
               1
     1  Ga   0.238318
     2  C   -0.703774
     3  H    0.155152
     4  H    0.155152
     5  H    0.155152
 Sum of Mulliken charges =   0.00000
 Mulliken charges with hydrogens summed into heavy atoms:
               1
     1  Ga   0.238318
     2  C   -0.238318
 Electronic spatial extent (au):  <R**2>=            185.5948
 Charge=              0.0000 electrons
 Dipole moment (field-independent basis, Debye):
    X=              0.0000    Y=              0.0000    Z=             -0.7403  Tot=              0.7403
 Quadrupole moment (field-independent basis, Debye-Ang):
   XX=            -22.3285   YY=            -22.3285   ZZ=            -28.5121
   XY=              0.0000   XZ=              0.0000   YZ=              0.0000
 Traceless Quadrupole moment (field-independent basis, Debye-Ang):
   XX=              2.0612   YY=              2.0612   ZZ=             -4.1224
   XY=              0.0000   XZ=              0.0000   YZ=              0.0000
 Octapole moment (field-independent basis, Debye-Ang**2):
  XXX=              0.0000  YYY=              0.4286  ZZZ=              8.9825  XYY=              0.0000
  XXY=             -0.4286  XXZ=              3.5112  XZZ=              0.0000  YZZ=              0.0000
  YYZ=              3.5112  XYZ=              0.0000
 Hexadecapole moment (field-independent basis, Debye-Ang**3):
 XXXX=            -35.1963 YYYY=            -35.1963 ZZZZ=           -220.0050 XXXY=              0.0000
 XXXZ=              0.0000 YYYX=              0.0000 YYYZ=             -1.0263 ZZZX=              0.0000
 ZZZY=              0.0000 XXYY=            -11.7321 XXZZ=            -39.4934 YYZZ=            -39.4934
 XXYZ=              1.0263 YYXZ=              0.0000 ZZXY=              0.0000
 N-N= 7.611349566138D+01 E-N=-4.840677220942D+03  KE= 1.954580502631D+03
 Symmetry A'   KE= 1.686992259695D+03
 Symmetry A"   KE= 2.675882429364D+02
 1|1|UNPC-CBEGRAD02|FOpt|RB3LYP|6-31G(d)|C1H3Ga1|GPD20001|22-Nov-2021|0
 ||# opt freq b3lyp/6-31g(d)||GaCH3 Opt and freq||0,1|Ga,-1.2752000865,
 0.975232156,0.0000000012|C,0.7727572601,0.9752322207,-0.0000000025|H,1
 .1812457512,0.4955967424,0.9020631509|H,1.1812457499,0.433840372,-0.86
 64081002|H,1.1812457021,1.9962595865,-0.0356550603||Version=EM64W-G09R
 evD.01|State=1-A1|HF=-1962.8194081|RMSD=1.718e-009|RMSF=8.816e-005|Dip
 ole=0.291239,0.,0.|Quadrupole=-3.0649138,1.5324569,1.5324569,-0.000000
 1,0.,0.|PG=C03V [C3(C1Ga1),3SGV(H1)]||@


 IT IS A CAPITAL MISTAKE TO THEORIZE BEFORE ONE HAS
 DATA.  INSENSIBLY ONE BEGINS TO TWIST FACTS TO SUIT
 THEORIES RATHER THAN THEORIES TO SUIT FACTS.

                                         -- SHERLOCK HOLMES
 Job cpu time:       0 days  0 hours  0 minutes 31.0 seconds.
 File lengths (MBytes):  RWF=      5 Int=      0 D2E=      0 Chk=      1 Scr=      1
 Normal termination of Gaussian 09 at Mon Nov 22 14:17:30 2021.
 Link1:  Proceeding to internal job step number  2.
 --------------------------------------------------------------------
 #N Geom=AllCheck Guess=TCheck SCRF=Check GenChk RB3LYP/6-31G(d) Freq
 --------------------------------------------------------------------
 1/10=4,29=7,30=1,38=1,40=1/1,3;
 2/12=2,40=1/2;
 3/5=1,6=6,7=1,11=2,14=-4,16=1,25=1,30=1,70=2,71=2,74=-5,116=1,140=1/1,2,3;
 4/5=101/1;
 5/5=2,98=1/2;
 8/6=4,10=90,11=11/1;
 11/6=1,8=1,9=11,15=111,16=1/1,2,10;
 10/6=1/2;
 6/7=2,8=2,9=2,10=2,18=1,28=1/1;
 7/8=1,10=1,25=1/1,2,3,16;
 1/10=4,30=1/3;
 99//99;
 Structure from the checkpoint file:  "C:\Work\Gau-17476.chk"
 ------------------
 GaCH3 Opt and freq
 ------------------
 Charge =  0 Multiplicity = 1
 Redundant internal coordinates found in file.
 Ga,0,-1.2752000865,0.975232156,0.0000000012
 C,0,0.7727572601,0.9752322207,-0.0000000025
 H,0,1.1812457512,0.4955967424,0.9020631509
 H,0,1.1812457499,0.433840372,-0.8664081002
 H,0,1.1812457021,1.9962595865,-0.0356550603
 Recover connectivity data from disk.

 GradGradGradGradGradGradGradGradGradGradGradGradGradGradGradGradGradGrad
 Berny optimization.
 Initialization pass.
                           ----------------------------
                           !    Initial Parameters    !
                           ! (Angstroms and Degrees)  !
 --------------------------                            --------------------------
 ! Name  Definition              Value          Derivative Info.                !
 --------------------------------------------------------------------------------
 ! R1    R(1,2)                  2.048          calculate D2E/DX2 analytically  !
 ! R2    R(2,3)                  1.1003         calculate D2E/DX2 analytically  !
 ! R3    R(2,4)                  1.1003         calculate D2E/DX2 analytically  !
 ! R4    R(2,5)                  1.1003         calculate D2E/DX2 analytically  !
 ! A1    A(1,2,3)              111.7931         calculate D2E/DX2 analytically  !
 ! A2    A(1,2,4)              111.7931         calculate D2E/DX2 analytically  !
 ! A3    A(1,2,5)              111.7931         calculate D2E/DX2 analytically  !
 ! A4    A(3,2,4)              107.0528         calculate D2E/DX2 analytically  !
 ! A5    A(3,2,5)              107.0528         calculate D2E/DX2 analytically  !
 ! A6    A(4,2,5)              107.0528         calculate D2E/DX2 analytically  !
 ! D1    D(3,2,5,4)            114.5151         calculate D2E/DX2 analytically  !
 --------------------------------------------------------------------------------
 Trust Radius=3.00D-01 FncErr=1.00D-07 GrdErr=1.00D-07
 Number of steps in this run=      2 maximum allowed number of steps=      2.
 GradGradGradGradGradGradGradGradGradGradGradGradGradGradGradGradGradGrad

                          Input orientation:                          
 ---------------------------------------------------------------------
 Center     Atomic      Atomic             Coordinates (Angstroms)
 Number     Number       Type             X           Y           Z
 ---------------------------------------------------------------------
      1         31           0       -1.275200    0.975232    0.000000
      2          6           0        0.772757    0.975232    0.000000
      3          1           0        1.181246    0.495597    0.902063
      4          1           0        1.181246    0.433840   -0.866408
      5          1           0        1.181246    1.996260   -0.035655
 ---------------------------------------------------------------------
                    Distance matrix (angstroms):
                    1          2          3          4          5
     1  Ga   0.000000
     2  C    2.047957   0.000000
     3  H    2.660431   1.100287   0.000000
     4  H    2.660431   1.100287   1.769549   0.000000
     5  H    2.660431   1.100287   1.769549   1.769549   0.000000
 Stoichiometry    CH3Ga
 Framework group  C3V[C3(CGa),3SGV(H)]
 Deg. of freedom     3
 Full point group                 C3V     NOp   6
 Largest Abelian subgroup         CS      NOp   2
 Largest concise Abelian subgroup CS      NOp   2
                         Standard orientation:                         
 ---------------------------------------------------------------------
 Center     Atomic      Atomic             Coordinates (Angstroms)
 Number     Number       Type             X           Y           Z
 ---------------------------------------------------------------------
      1         31           0        0.000000    0.000000    0.491427
      2          6           0        0.000000    0.000000   -1.556530
      3          1           0        0.000000    1.021650   -1.965019
      4          1           0        0.884775   -0.510825   -1.965019
      5          1           0       -0.884775   -0.510825   -1.965019
 ---------------------------------------------------------------------
 Rotational constants (GHZ):    160.1425584      8.7206915      8.7206915
 Standard basis: 6-31G(d) (6D, 7F)
 There are    37 symmetry adapted cartesian basis functions of A'  symmetry.
 There are    14 symmetry adapted cartesian basis functions of A"  symmetry.
 There are    37 symmetry adapted basis functions of A'  symmetry.
 There are    14 symmetry adapted basis functions of A"  symmetry.
    51 basis functions,   123 primitive gaussians,    51 cartesian basis functions
    20 alpha electrons       20 beta electrons
       nuclear repulsion energy        76.1134956614 Hartrees.
 NAtoms=    5 NActive=    5 NUniq=    3 SFac= 2.78D+00 NAtFMM=   60 NAOKFM=F Big=F
 Integral buffers will be    131072 words long.
 Raffenetti 2 integral format.
 Two-electron integral symmetry is turned on.
 One-electron integrals computed using PRISM.
 NBasis=    51 RedAO= T EigKep=  2.83D-03  NBF=    37    14
 NBsUse=    51 1.00D-06 EigRej= -1.00D+00 NBFU=    37    14
 Initial guess from the checkpoint file:  "C:\Work\Gau-17476.chk"
 B after Tr=     0.000000    0.000000    0.000000
         Rot=    1.000000    0.000000    0.000000    0.000000 Ang=   0.00 deg.
 Initial guess orbital symmetries:
       Occupied  (A1) (A1) (E) (E) (A1) (A1) (A1) (E) (E) (A1)
                 (E) (E) (A1) (E) (E) (A1) (E) (E) (A1) (A1)
       Virtual   (E) (E) (A1) (A1) (E) (E) (A1) (E) (E) (E) (E)
                 (E) (E) (A1) (A1) (A1) (A1) (E) (E) (E) (E) (A1)
                 (A1) (E) (E) (A1) (E) (E) (A1) (A1) (A1)
 Keep R1 ints in memory in symmetry-blocked form, NReq=1905002.
 Requested convergence on RMS density matrix=1.00D-08 within 128 cycles.
[...]
 Isotropic polarizability for W=    0.000000       47.63 Bohr**3.
 End of Minotr F.D. properties file   721 does not exist.
 End of Minotr F.D. properties file   722 does not exist.
 End of Minotr F.D. properties file   788 does not exist.

 **********************************************************************

            Population analysis using the SCF density.

 **********************************************************************

 Orbital symmetries:
       Occupied  (A1) (A1) (E) (E) (A1) (A1) (A1) (E) (E) (A1)
                 (E) (E) (A1) (E) (E) (A1) (E) (E) (A1) (A1)
       Virtual   (E) (E) (A1) (A1) (E) (E) (A1) (E) (E) (E) (E)
                 (E) (E) (A1) (A1) (A1) (A1) (E) (E) (E) (E) (A1)
                 (A1) (E) (E) (A1) (E) (E) (A1) (A1) (A1)
 The electronic state is 1-A1.
 Alpha  occ. eigenvalues -- -372.51525 -45.36776 -40.68950 -40.68950 -40.68780
 Alpha  occ. eigenvalues --  -10.14796  -5.37583  -3.76238  -3.76238  -3.75173
 Alpha  occ. eigenvalues --   -0.81702  -0.81702  -0.80897  -0.80821  -0.80821
 Alpha  occ. eigenvalues --   -0.66175  -0.37997  -0.37997  -0.36462  -0.19633
 Alpha virt. eigenvalues --   -0.05498  -0.05498   0.05389   0.08662   0.15931
 Alpha virt. eigenvalues --    0.15931   0.18958   0.24113   0.24113   0.27263
 Alpha virt. eigenvalues --    0.27263   0.28404   0.28404   0.30203   0.45139
 Alpha virt. eigenvalues --    0.58374   0.66473   0.68343   0.68343   0.90138
 Alpha virt. eigenvalues --    0.90138   0.99958   1.24029   1.73683   1.73683
 Alpha virt. eigenvalues --    1.99599   2.27725   2.27725   4.11991   4.26945
 Alpha virt. eigenvalues --   18.99828
          Condensed to atoms (all electrons):
               1          2          3          4          5
     1  Ga  30.517782   0.299038  -0.018379  -0.018379  -0.018379
     2  C    0.299038   5.391431   0.337768   0.337768   0.337768
     3  H   -0.018379   0.337768   0.570175  -0.022358  -0.022358
     4  H   -0.018379   0.337768  -0.022358   0.570175  -0.022358
     5  H   -0.018379   0.337768  -0.022358  -0.022358   0.570175
 Mulliken charges:
               1
     1  Ga   0.238318
     2  C   -0.703774
     3  H    0.155152
     4  H    0.155152
     5  H    0.155152
 Sum of Mulliken charges =   0.00000
 Mulliken charges with hydrogens summed into heavy atoms:
               1
     1  Ga   0.238318
     2  C   -0.238318
 APT charges:
               1
     1  Ga   0.242242
     2  C   -0.137466
     3  H   -0.034916
     4  H   -0.034923
     5  H   -0.034923
 Sum of APT charges =   0.00001
 APT charges with hydrogens summed into heavy atoms:
               1
     1  Ga   0.242242
     2  C   -0.242228
 Electronic spatial extent (au):  <R**2>=            185.5948
 Charge=              0.0000 electrons
 Dipole moment (field-independent basis, Debye):
    X=              0.0000    Y=              0.0000    Z=             -0.7403  Tot=              0.7403
 Quadrupole moment (field-independent basis, Debye-Ang):
   XX=            -22.3285   YY=            -22.3285   ZZ=            -28.5121
   XY=              0.0000   XZ=              0.0000   YZ=              0.0000
 Traceless Quadrupole moment (field-independent basis, Debye-Ang):
   XX=              2.0612   YY=              2.0612   ZZ=             -4.1224
   XY=              0.0000   XZ=              0.0000   YZ=              0.0000
 Octapole moment (field-independent basis, Debye-Ang**2):
  XXX=              0.0000  YYY=              0.4286  ZZZ=              8.9825  XYY=              0.0000
  XXY=             -0.4286  XXZ=              3.5112  XZZ=              0.0000  YZZ=              0.0000
  YYZ=              3.5112  XYZ=              0.0000
 Hexadecapole moment (field-independent basis, Debye-Ang**3):
 XXXX=            -35.1963 YYYY=            -35.1963 ZZZZ=           -220.0050 XXXY=              0.0000
 XXXZ=              0.0000 YYYX=              0.0000 YYYZ=             -1.0263 ZZZX=              0.0000
 ZZZY=              0.0000 XXYY=            -11.7321 XXZZ=            -39.4934 YYZZ=            -39.4934
 XXYZ=              1.0263 YYXZ=              0.0000 ZZXY=              0.0000
 N-N= 7.611349566138D+01 E-N=-4.840677221106D+03  KE= 1.954580502678D+03
 Symmetry A'   KE= 1.686992259732D+03
 Symmetry A"   KE= 2.675882429466D+02
  Exact polarizability:  42.692   0.000  42.701   0.000  -0.004  57.507
 Approx polarizability:  64.455   0.000  64.455   0.000   0.000  70.502
 Calling FoFJK, ICntrl=    100127 FMM=F ISym2X=1 I1Cent= 0 IOpClX= 0 NMat=1 NMatS=1 NMatT=0.
 Full mass-weighted force constant matrix:
 Low frequencies ---  -44.3083   -0.0078    0.0077    0.0173   11.4089   11.5173
 Low frequencies ---  486.3965  486.4037  493.3372
 Diagonal vibrational polarizability:
        0.4694641       0.4699790       7.6890988
 Harmonic frequencies (cm**-1), IR intensities (KM/Mole), Raman scattering
 activities (A**4/AMU), depolarization ratios for plane and unpolarized
 incident light, reduced masses (AMU), force constants (mDyne/A),
 and normal coordinates:
                      1                      2                      3
                      E                      E                     A1
 Frequencies --    486.3957               486.4029               493.3372
 Red. masses --      1.1608                 1.1608                 4.1691
 Frc consts  --      0.1618                 0.1618                 0.5978
 IR Inten    --      2.2520                 2.2477                67.6678
  Atom  AN      X      Y      Z        X      Y      Z        X      Y      Z
     1  31     0.00  -0.01   0.00    -0.01   0.00   0.00     0.00   0.00   0.10
     2   6     0.00   0.12   0.00     0.12   0.00   0.00     0.00   0.00  -0.47
     3   1     0.00  -0.20  -0.74    -0.25   0.00   0.00     0.00  -0.01  -0.51
     4   1    -0.02  -0.24   0.37    -0.21  -0.02  -0.64    -0.01   0.01  -0.51
     5   1     0.02  -0.24   0.37    -0.21   0.02   0.64     0.01   0.01  -0.51
                      4                      5                      6
                     A1                      E                      E
 Frequencies --   1228.8915              1469.8339              1469.8347
 Red. masses --      1.2261                 1.0608                 1.0608
 Frc consts  --      1.0910                 1.3503                 1.3503
 IR Inten    --      9.6450                11.0054                11.0069
  Atom  AN      X      Y      Z        X      Y      Z        X      Y      Z
     1  31     0.00   0.00   0.00     0.00   0.00   0.00     0.00   0.00   0.00
     2   6     0.00   0.00   0.14    -0.07   0.00   0.00     0.00   0.07   0.00
     3   1     0.00  -0.23  -0.52     0.74   0.00   0.00     0.00   0.16   0.29
     4   1    -0.20   0.12  -0.52     0.06   0.39  -0.25    -0.39  -0.52  -0.15
     5   1     0.20   0.12  -0.52     0.06  -0.39   0.25     0.39  -0.52  -0.15
                      7                      8                      9
                     A1                      E                      E
 Frequencies --   3001.4025              3076.3765              3076.3768
 Red. masses --      1.0338                 1.0984                 1.0984
 Frc consts  --      5.4869                 6.1247                 6.1247
 IR Inten    --     11.7356                26.9774                26.9775
  Atom  AN      X      Y      Z        X      Y      Z        X      Y      Z
     1  31     0.00   0.00   0.00     0.00   0.00   0.00     0.00   0.00   0.00
     2   6     0.00   0.00   0.05     0.09   0.00   0.00     0.00   0.09   0.00
     3   1     0.00   0.54  -0.19     0.02   0.00   0.00     0.00  -0.75   0.31
     4   1     0.47  -0.27  -0.19    -0.56   0.34   0.27     0.34  -0.17  -0.15
     5   1    -0.47  -0.27  -0.19    -0.56  -0.34  -0.27    -0.34  -0.17  -0.15

 -------------------
 - Thermochemistry -
 -------------------
 Temperature   298.150 Kelvin.  Pressure   1.00000 Atm.
 Atom     1 has atomic number 31 and mass  68.92558
 Atom     2 has atomic number  6 and mass  12.00000
 Atom     3 has atomic number  1 and mass   1.00783
 Atom     4 has atomic number  1 and mass   1.00783
 Atom     5 has atomic number  1 and mass   1.00783
 Molecular mass:    83.94906 amu.
 Principal axes and moments of inertia in atomic units:
                           1         2         3
     Eigenvalues --    11.26959 206.94932 206.94932
           X            0.00000  -0.24254   0.97014
           Y            0.00000   0.97014   0.24254
           Z            1.00000   0.00000   0.00000
 This molecule is a prolate symmetric top.
 Rotational symmetry number  3.
 Rotational temperatures (Kelvin)      7.68562     0.41853     0.41853
 Rotational constants (GHZ):         160.14256     8.72069     8.72069
 Zero-point vibrational energy      88457.0 (Joules/Mol)
                                   21.14172 (Kcal/Mol)
 Warning -- explicit consideration of   3 degrees of freedom as
           vibrations may cause significant error
 Vibrational temperatures:    699.81   699.82   709.80  1768.10  2114.76
          (Kelvin)           2114.76  4318.34  4426.21  4426.21
 
 Zero-point correction=                           0.033691 (Hartree/Particle)
 Thermal correction to Energy=                    0.037248
 Thermal correction to Enthalpy=                  0.038192
 Thermal correction to Gibbs Free Energy=         0.009711
 Sum of electronic and zero-point Energies=          -1962.785717
 Sum of electronic and thermal Energies=             -1962.782160
 Sum of electronic and thermal Enthalpies=           -1962.781216
 Sum of electronic and thermal Free Energies=        -1962.809697
 
                     E (Thermal)             CV                S
                      KCal/Mol        Cal/Mol-Kelvin    Cal/Mol-Kelvin
 Total                   23.373             10.141             59.944
 Electronic               0.000              0.000              0.000
 Translational            0.889              2.981             39.197
 Rotational               0.889              2.981             18.623
 Vibrational             21.596              4.179              2.125
 Vibration     1          0.842              1.280              0.693
 Vibration     2          0.842              1.280              0.693
 Vibration     3          0.849              1.265              0.675
                       Q            Log10(Q)             Ln(Q)
 Total Bot       0.341498D-04         -4.466612        -10.284754
 Total V=0       0.107241D+12         11.030361         25.398346
 Vib (Bot)       0.430889D-15        -15.365634        -35.380680
 Vib (Bot)    1  0.341958D+00         -0.466028         -1.073069
 Vib (Bot)    2  0.341950D+00         -0.466037         -1.073090
 Vib (Bot)    3  0.335110D+00         -0.474812         -1.093295
 Vib (V=0)       0.135313D+01          0.131339          0.302420
 Vib (V=0)    1  0.110575D+01          0.043658          0.100525
 Vib (V=0)    2  0.110575D+01          0.043656          0.100522
 Vib (V=0)    3  0.110191D+01          0.042147          0.097048
 Electronic      0.100000D+01          0.000000          0.000000
 Translational   0.302328D+08          7.480479         17.224439
 Rotational      0.262146D+04          3.418543          7.871487
 ***** Axes restored to original set *****
 -------------------------------------------------------------------
 Center     Atomic                   Forces (Hartrees/Bohr)
 Number     Number              X              Y              Z
 -------------------------------------------------------------------
      1       31          -0.000091513    0.000000000    0.000000000
      2        6           0.000189838    0.000000000    0.000000000
      3        1          -0.000032775   -0.000071170    0.000133852
      4        1          -0.000032775   -0.000080334   -0.000128562
      5        1          -0.000032775    0.000151505   -0.000005291
 -------------------------------------------------------------------
 Cartesian Forces:  Max     0.000189838 RMS     0.000088159
 FormGI is forming the generalized inverse of G from B-inverse, IUseBI=4.

 GradGradGradGradGradGradGradGradGradGradGradGradGradGradGradGradGradGrad
 Berny optimization.
 Internal  Forces:  Max     0.000128594 RMS     0.000088358
 Search for a local minimum.
 Step number   1 out of a maximum of    2
 All quantities printed in internal units (Hartrees-Bohrs-Radians)
 Second derivative matrix not updated -- analytic derivatives used.
 The second derivative matrix:
                          R1        R2        R3        R4        A1
           R1           0.11411
           R2           0.00214   0.33027
           R3           0.00214   0.00180   0.33027
           R4           0.00214   0.00180   0.00180   0.33027
           A1           0.00272   0.00704  -0.00697  -0.00914   0.03304
           A2           0.00271  -0.00697   0.00704  -0.00914  -0.00695
           A3           0.00271  -0.00697  -0.00697   0.00487  -0.00626
           A4          -0.00081   0.00564   0.00564  -0.00857   0.00416
           A5          -0.00400   0.01058  -0.00875   0.01154  -0.01591
           A6          -0.00400  -0.00875   0.01058   0.01154  -0.00970
           D1          -0.00474   0.00735   0.00735   0.00115  -0.00744
                          A2        A3        A4        A5        A6
           A2           0.03304
           A3          -0.00626   0.03444
           A4           0.00416   0.00872   0.04884
           A5          -0.00970  -0.01622  -0.03363   0.10653
           A6          -0.01591  -0.01622  -0.03363  -0.02765   0.10653
           D1          -0.00744  -0.00545   0.02406  -0.00104  -0.00104
                          D1
           D1           0.02667
 ITU=  0
     Eigenvalues ---    0.03857   0.03877   0.04781   0.11291   0.12643
     Eigenvalues ---    0.13289   0.33058   0.33099   0.33508
 Angle between quadratic step and forces=  43.32 degrees.
 Linear search not attempted -- first point.
 Iteration  1 RMS(Cart)=  0.00063782 RMS(Int)=  0.00000071
 Iteration  2 RMS(Cart)=  0.00000041 RMS(Int)=  0.00000055
 ClnCor:  largest displacement from symmetrization is 8.91D-08 for atom     4.
 Variable       Old X    -DE/DX   Delta X   Delta X   Delta X     New X
                                 (Linear)    (Quad)   (Total)
    R1        3.87008   0.00009   0.00000   0.00100   0.00100   3.87108
    R2        2.07924   0.00013   0.00000   0.00030   0.00030   2.07954
    R3        2.07924   0.00013   0.00000   0.00030   0.00030   2.07954
    R4        2.07924   0.00013   0.00000   0.00030   0.00030   2.07954
    A1        1.95116  -0.00005   0.00000  -0.00086  -0.00086   1.95030
    A2        1.95116  -0.00005   0.00000  -0.00086  -0.00086   1.95030
    A3        1.95116  -0.00005   0.00000  -0.00086  -0.00086   1.95030
    A4        1.86842   0.00002   0.00000   0.00093   0.00093   1.86935
    A5        1.86842   0.00008   0.00000   0.00093   0.00093   1.86935
    A6        1.86842   0.00008   0.00000   0.00093   0.00093   1.86935
    D1        1.99867   0.00009   0.00000   0.00196   0.00196   2.00063
         Item               Value     Threshold  Converged?
 Maximum Force            0.000129     0.000450     YES
 RMS     Force            0.000088     0.000300     YES
 Maximum Displacement     0.001131     0.001800     YES
 RMS     Displacement     0.000638     0.001200     YES
 Predicted change in Energy=-3.357235D-07
 Optimization completed.
    -- Stationary point found.
                           ----------------------------
                           !   Optimized Parameters   !
                           ! (Angstroms and Degrees)  !
 --------------------------                            --------------------------
 ! Name  Definition              Value          Derivative Info.                !
 --------------------------------------------------------------------------------
 ! R1    R(1,2)                  2.048          -DE/DX =    0.0001              !
 ! R2    R(2,3)                  1.1003         -DE/DX =    0.0001              !
 ! R3    R(2,4)                  1.1003         -DE/DX =    0.0001              !
 ! R4    R(2,5)                  1.1003         -DE/DX =    0.0001              !
 ! A1    A(1,2,3)              111.7931         -DE/DX =   -0.0001              !
 ! A2    A(1,2,4)              111.7931         -DE/DX =   -0.0001              !
 ! A3    A(1,2,5)              111.7931         -DE/DX =   -0.0001              !
 ! A4    A(3,2,4)              107.0528         -DE/DX =    0.0                 !
 ! A5    A(3,2,5)              107.0528         -DE/DX =    0.0001              !
 ! A6    A(4,2,5)              107.0528         -DE/DX =    0.0001              !
 ! D1    D(3,2,5,4)            114.5151         -DE/DX =    0.0001              !
 --------------------------------------------------------------------------------
 GradGradGradGradGradGradGradGradGradGradGradGradGradGradGradGradGradGrad

 1|1|UNPC-CBEGRAD02|Freq|RB3LYP|6-31G(d)|C1H3Ga1|GPD20001|22-Nov-2021|0
 ||#N Geom=AllCheck Guess=TCheck SCRF=Check GenChk RB3LYP/6-31G(d) Freq
 ||GaCH3 Opt and freq||0,1|Ga,-1.2752000865,0.975232156,0.0000000012|C,
 0.7727572601,0.9752322207,-0.0000000025|H,1.1812457512,0.4955967424,0.
 9020631509|H,1.1812457499,0.433840372,-0.8664081002|H,1.1812457021,1.9
 962595865,-0.0356550603||Version=EM64W-G09RevD.01|State=1-A1|HF=-1962.
 8194081|RMSD=3.411e-010|RMSF=8.816e-005|ZeroPoint=0.0336915|Thermal=0.
 0372479|Dipole=0.291239,0.,0.|DipoleDeriv=0.9346436,-0.0000554,0.00010
 42,0.0000319,-0.1039214,0.0000547,-0.0000599,0.0000547,-0.1039953,-0.8
 164221,0.0000332,-0.0000626,-0.0000416,0.2019751,-0.0000539,0.0000782,
 -0.0000539,0.2020478,-0.0393821,-0.0055561,0.0104495,0.0370186,0.02772
 39,0.0895569,-0.0696218,0.0895569,-0.0930899,-0.0394009,-0.0062491,-0.
 0100379,0.0417773,0.0146735,-0.097097,0.06686,-0.0970916,-0.0800415,-0
 .0394009,0.0118163,-0.0004324,-0.078791,-0.1404487,0.0075397,0.0027527
 ,0.0075342,0.0750807|Polar=57.5066265,-0.0017666,42.6940724,0.0033233,
 -0.0036746,42.6990294|PG=C03V [C3(C1Ga1),3SGV(H1)]|NImag=0||0.11411481
 ,-0.00000062,0.00409476,0.00000118,0.00000125,0.00409308,-0.09901518,0
 .00000060,-0.00000113,0.31557246,0.00000086,-0.00033875,-0.00000111,-0
 .00000175,0.45517631,-0.00000162,-0.00000111,-0.00033725,0.00000329,0.
 00000079,0.45517524,-0.00503348,0.00297321,-0.00559179,-0.07218608,0.0
 5676969,-0.10676826,0.06806119,0.00013899,-0.00118776,0.00009544,0.040
 85346,-0.09046523,0.09065479,-0.04734952,0.09845618,-0.00026140,0.0000
 9544,-0.00131651,-0.07683418,0.09065479,-0.21276009,0.08905150,-0.1026
 6233,0.23694942,-0.00503328,0.00335675,0.00537113,-0.07218584,0.064078
 34,0.10254714,0.00457918,-0.00682692,-0.01129835,0.06806119,0.00015705
 ,-0.00120147,-0.00010374,0.04611329,-0.10367689,-0.09828241,-0.0060221
 5,0.00691468,0.01206092,-0.05344610,0.11341792,0.00025130,-0.00010341,
 -0.00130256,0.07379635,-0.09828269,-0.19954832,0.01174705,-0.01406553,
 -0.02175269,-0.08553164,0.11130049,0.22198768,-0.00503328,-0.00632994,
 0.00022063,-0.07218583,-0.12084758,0.00422028,0.00457918,0.01318432,-0
 .00065819,0.00457918,0.01319812,-0.00026311,0.06806118,-0.00029616,-0.
 00136698,0.00000824,-0.08696616,-0.26069565,0.00762778,-0.00637120,-0.
 01371782,-0.00014874,-0.00716217,-0.01545387,0.00115104,0.10079561,0.2
 9123431,0.00001032,0.00000790,-0.00113705,0.00303675,0.00762807,-0.042
 52958,0.01156146,0.02597771,-0.00112019,-0.01108886,-0.02497541,0.0006
 1586,-0.00351986,-0.00863816,0.04417131||0.00009151,0.,0.,-0.00018984,
 0.,0.,0.00003278,0.00007117,-0.00013385,0.00003278,0.00008033,0.000128
 56,0.00003278,-0.00015150,0.00000529|||@


 THE DIFFICULTY IN SCIENCE IS OFTEN NOT SO MUCH HOW
 TO MAKE A DISCOVERY BUT RATHER TO KNOW ONE HAS MADE IT.

                                                   -- J. D. BERNAL
 Job cpu time:       0 days  0 hours  0 minutes 13.0 seconds.
 File lengths (MBytes):  RWF=      5 Int=      0 D2E=      0 Chk=      1 Scr=      1
 Normal termination of Gaussian 09 at Mon Nov 22 14:17:43 2021.
