 Entering Link 1 = C:\G09W\l1.exe PID=      7496.
  
 Copyright (c) 1988,1990,1992,1993,1995,1998,2003,2009,2013,
            Gaussian, Inc.  All Rights Reserved.
  
 This is part of the Gaussian(R) 09 program.  It is based on
 the Gaussian(R) 03 system (copyright 2003, Gaussian, Inc.),
 the Gaussian(R) 98 system (copyright 1998, Gaussian, Inc.),
 the Gaussian(R) 94 system (copyright 1995, Gaussian, Inc.),
 the Gaussian 92(TM) system (copyright 1992, Gaussian, Inc.),
 the Gaussian 90(TM) system (copyright 1990, Gaussian, Inc.),
 the Gaussian 88(TM) system (copyright 1988, Gaussian, Inc.),
 the Gaussian 86(TM) system (copyright 1986, Carnegie Mellon
 University), and the Gaussian 82(TM) system (copyright 1983,
 Carnegie Mellon University). Gaussian is a federally registered
 trademark of Gaussian, Inc.
  
 This software contains proprietary and confidential information,
 including trade secrets, belonging to Gaussian, Inc.
  
 This software is provided under written license and may be
 used, copied, transmitted, or stored only in accord with that
 written license.
  
 The following legend is applicable only to US Government
 contracts under FAR:
  
                    RESTRICTED RIGHTS LEGEND
  
 Use, reproduction and disclosure by the US Government is
 subject to restrictions as set forth in subparagraphs (a)
 and (c) of the Commercial Computer Software - Restricted
 Rights clause in FAR 52.227-19.
  
 Gaussian, Inc.
 340 Quinnipiac St., Bldg. 40, Wallingford CT 06492
  
  
 ---------------------------------------------------------------
 Warning -- This program may not be used in any manner that
 competes with the business of Gaussian, Inc. or will provide
 assistance to any competitor of Gaussian, Inc.  The licensee
 of this program is prohibited from giving any competitor of
 Gaussian, Inc. access to this program.  By using this program,
 the user acknowledges that Gaussian, Inc. is engaged in the
 business of creating and licensing software in the field of
 computational chemistry and represents and warrants to the
 licensee that it is not a competitor of Gaussian, Inc. and that
 it will not use this program in any manner prohibited above.
 ---------------------------------------------------------------
  

 Cite this work as:
 Gaussian 09, Revision D.01,
 M. J. Frisch, G. W. Trucks, H. B. Schlegel, G. E. Scuseria, 
 M. A. Robb, J. R. Cheeseman, G. Scalmani, V. Barone, B. Mennucci, 
 G. A. Petersson, H. Nakatsuji, M. Caricato, X. Li, H. P. Hratchian, 
 A. F. Izmaylov, J. Bloino, G. Zheng, J. L. Sonnenberg, M. Hada, 
 M. Ehara, K. Toyota, R. Fukuda, J. Hasegawa, M. Ishida, T. Nakajima, 
 Y. Honda, O. Kitao, H. Nakai, T. Vreven, J. A. Montgomery, Jr., 
 J. E. Peralta, F. Ogliaro, M. Bearpark, J. J. Heyd, E. Brothers, 
 K. N. Kudin, V. N. Staroverov, T. Keith, R. Kobayashi, J. Normand, 
 K. Raghavachari, A. Rendell, J. C. Burant, S. S. Iyengar, J. Tomasi, 
 M. Cossi, N. Rega, J. M. Millam, M. Klene, J. E. Knox, J. B. Cross, 
 V. Bakken, C. Adamo, J. Jaramillo, R. Gomperts, R. E. Stratmann, 
 O. Yazyev, A. J. Austin, R. Cammi, C. Pomelli, J. W. Ochterski, 
 R. L. Martin, K. Morokuma, V. G. Zakrzewski, G. A. Voth, 
 P. Salvador, J. J. Dannenberg, S. Dapprich, A. D. Daniels, 
 O. Farkas, J. B. Foresman, J. V. Ortiz, J. Cioslowski, 
 and D. J. Fox, Gaussian, Inc., Wallingford CT, 2013.
 
 ******************************************
 Gaussian 09:  EM64W-G09RevD.01 13-Apr-2013
                30-Nov-2021 
 ******************************************
 -------------------------
 # opt freq b3lyp/6-31g(d)
 -------------------------
 1/14=-1,18=20,19=15,26=3,38=1/1,3;
 2/9=110,12=2,17=6,18=5,40=1/2;
 3/5=1,6=6,7=1,11=2,16=1,25=1,30=1,71=1,74=-5/1,2,3;
 4//1;
 5/5=2,38=5/2;
 6/7=2,8=2,9=2,10=2,28=1/1;
 7//1,2,3,16;
 1/14=-1,18=20,19=15,26=3/3(2);
 2/9=110/2;
 99//99;
 2/9=110/2;
 3/5=1,6=6,7=1,11=2,16=1,25=1,30=1,71=1,74=-5/1,2,3;
 4/5=5,16=3,69=1/1;
 5/5=2,38=5/2;
 7//1,2,3,16;
 1/14=-1,18=20,19=15,26=3/3(-5);
 2/9=110/2;
 6/7=2,8=2,9=2,10=2,19=2,28=1/1;
 99/9=1/99;
 ---------------
 H2CO opt + freq
 ---------------
 Symbolic Z-matrix:
 Charge =  0 Multiplicity = 1
 C                     0.        0.       -0.56221 
 H                     0.       -0.92445  -1.10111 
 H                     0.        0.92445  -1.10111 
 O                     0.        0.        0.69619 
 

 GradGradGradGradGradGradGradGradGradGradGradGradGradGradGradGradGradGrad
 Berny optimization.
 Initialization pass.
                           ----------------------------
                           !    Initial Parameters    !
                           ! (Angstroms and Degrees)  !
 --------------------------                            --------------------------
 ! Name  Definition              Value          Derivative Info.                !
 --------------------------------------------------------------------------------
 ! R1    R(1,2)                  1.0701         estimate D2E/DX2                !
 ! R2    R(1,3)                  1.0701         estimate D2E/DX2                !
 ! R3    R(1,4)                  1.2584         estimate D2E/DX2                !
 ! A1    A(2,1,3)              119.521          estimate D2E/DX2                !
 ! A2    A(2,1,4)              120.2395         estimate D2E/DX2                !
 ! A3    A(3,1,4)              120.2395         estimate D2E/DX2                !
 ! D1    D(2,1,4,3)            180.0            estimate D2E/DX2                !
 --------------------------------------------------------------------------------
 Trust Radius=3.00D-01 FncErr=1.00D-07 GrdErr=1.00D-06
 Number of steps in this run=     20 maximum allowed number of steps=    100.
 GradGradGradGradGradGradGradGradGradGradGradGradGradGradGradGradGradGrad

                          Input orientation:                          
 ---------------------------------------------------------------------
 Center     Atomic      Atomic             Coordinates (Angstroms)
 Number     Number       Type             X           Y           Z
 ---------------------------------------------------------------------
      1          6           0        0.000000    0.000000   -0.562211
      2          1           0        0.000000   -0.924448   -1.101105
      3          1           0        0.000000    0.924448   -1.101105
      4          8           0        0.000000    0.000000    0.696189
 ---------------------------------------------------------------------
                    Distance matrix (angstroms):
                    1          2          3          4
     1  C    0.000000
     2  H    1.070052   0.000000
     3  H    1.070052   1.848895   0.000000
     4  O    1.258400   2.021107   2.021107   0.000000
 Stoichiometry    CH2O
 Framework group  C2V[C2(CO),SGV(H2)]
 Deg. of freedom     3
 Full point group                 C2V     NOp   4
 Largest Abelian subgroup         C2V     NOp   4
 Largest concise Abelian subgroup C2      NOp   2
                         Standard orientation:                         
 ---------------------------------------------------------------------
 Center     Atomic      Atomic             Coordinates (Angstroms)
 Number     Number       Type             X           Y           Z
 ---------------------------------------------------------------------
      1          6           0        0.000000    0.000000   -0.561838
      2          1           0        0.000000    0.924448   -1.100733
      3          1           0        0.000000   -0.924448   -1.100733
      4          8           0        0.000000    0.000000    0.696562
 ---------------------------------------------------------------------
 Rotational constants (GHZ):    293.3846535     36.5359393     32.4898904
 Standard basis: 6-31G(d) (6D, 7F)
 There are    18 symmetry adapted cartesian basis functions of A1  symmetry.
 There are     2 symmetry adapted cartesian basis functions of A2  symmetry.
 There are     6 symmetry adapted cartesian basis functions of B1  symmetry.
 There are     8 symmetry adapted cartesian basis functions of B2  symmetry.
 There are    18 symmetry adapted basis functions of A1  symmetry.
 There are     2 symmetry adapted basis functions of A2  symmetry.
 There are     6 symmetry adapted basis functions of B1  symmetry.
 There are     8 symmetry adapted basis functions of B2  symmetry.
    34 basis functions,    64 primitive gaussians,    34 cartesian basis functions
     8 alpha electrons        8 beta electrons
       nuclear repulsion energy        30.5945943065 Hartrees.
 NAtoms=    4 NActive=    4 NUniq=    3 SFac= 1.78D+00 NAtFMM=   60 NAOKFM=F Big=F
 Integral buffers will be    131072 words long.
 Raffenetti 2 integral format.
 Two-electron integral symmetry is turned on.
 One-electron integrals computed using PRISM.
 NBasis=    34 RedAO= T EigKep=  1.99D-02  NBF=    18     2     6     8
 NBsUse=    34 1.00D-06 EigRej= -1.00D+00 NBFU=    18     2     6     8
 ExpMin= 1.61D-01 ExpMax= 5.48D+03 ExpMxC= 8.25D+02 IAcc=1 IRadAn=         1 AccDes= 0.00D+00
 Harris functional with IExCor=  402 and IRadAn=       1 diagonalized for initial guess.
 HarFok:  IExCor=  402 AccDes= 0.00D+00 IRadAn=         1 IDoV= 1 UseB2=F ITyADJ=14
 ICtDFT=  3500011 ScaDFX=  1.000000  1.000000  1.000000  1.000000
 FoFCou: FMM=F IPFlag=           0 FMFlag=      100000 FMFlg1=           0
         NFxFlg=           0 DoJE=T BraDBF=F KetDBF=T FulRan=T
         wScrn=  0.000000 ICntrl=     500 IOpCl=  0 I1Cent=   200000004 NGrid=           0
         NMat0=    1 NMatS0=      1 NMatT0=    0 NMatD0=    1 NMtDS0=    0 NMtDT0=    0
 Petite list used in FoFCou.
 Initial guess orbital symmetries:
       Occupied  (A1) (A1) (A1) (A1) (B2) (A1) (B1) (B2)
       Virtual   (B1) (A1) (B2) (A1) (B1) (A1) (B2) (A1) (A1) (B2)
                 (A1) (B1) (B2) (A1) (B1) (A2) (A1) (B2) (A2) (A1)
                 (A1) (B1) (B2) (A1) (A1) (A1)
 The electronic state of the initial guess is 1-A1.
 Keep R1 ints in memory in symmetry-blocked form, NReq=1062354.
 Requested convergence on RMS density matrix=1.00D-08 within 128 cycles.
 Requested convergence on MAX density matrix=1.00D-06.
 Requested convergence on             energy=1.00D-06.
 No special actions if energy rises.
 Integral accuracy reduced to 1.0D-05 until final iterations.
 Initial convergence to 1.0D-05 achieved.  Increase integral accuracy.
 SCF Done:  E(RB3LYP) =  -114.495128016     A.U. after   11 cycles
            NFock= 11  Conv=0.46D-08     -V/T= 2.0094

 **********************************************************************

            Population analysis using the SCF density.

 **********************************************************************

 Orbital symmetries:
       Occupied  (A1) (A1) (A1) (A1) (B2) (A1) (B1) (B2)
       Virtual   (B1) (A1) (B2) (A1) (B1) (A1) (B2) (A1) (B2) (A1)
                 (A1) (B1) (B2) (A1) (B1) (A2) (A1) (B2) (A2) (A1)
                 (A1) (B1) (B2) (A1) (A1) (A1)
 The electronic state is 1-A1.
 Alpha  occ. eigenvalues --  -19.16710 -10.28624  -1.03074  -0.65129  -0.50131
 Alpha  occ. eigenvalues --   -0.43818  -0.38077  -0.26811
 Alpha virt. eigenvalues --   -0.05469   0.11015   0.18454   0.21073   0.51205
 Alpha virt. eigenvalues --    0.58673   0.63118   0.65016   0.84576   0.85641
 Alpha virt. eigenvalues --    0.91176   0.96124   1.06009   1.36178   1.48838
 Alpha virt. eigenvalues --    1.51855   1.71738   1.86102   1.91307   2.11545
 Alpha virt. eigenvalues --    2.23614   2.49008   2.60584   2.86001   3.64998
 Alpha virt. eigenvalues --    4.06974
          Condensed to atoms (all electrons):
               1          2          3          4
     1  C    4.737855   0.336372   0.336372   0.520237
     2  H    0.336372   0.664780  -0.088911  -0.053473
     3  H    0.336372  -0.088911   0.664780  -0.053473
     4  O    0.520237  -0.053473  -0.053473   7.938339
 Mulliken charges:
               1
     1  C    0.069164
     2  H    0.141233
     3  H    0.141233
     4  O   -0.351629
 Sum of Mulliken charges =   0.00000
 Mulliken charges with hydrogens summed into heavy atoms:
               1
     1  C    0.351629
     4  O   -0.351629
 Electronic spatial extent (au):  <R**2>=             61.0655
 Charge=              0.0000 electrons
 Dipole moment (field-independent basis, Debye):
    X=              0.0000    Y=              0.0000    Z=             -2.4259  Tot=              2.4259
 Quadrupole moment (field-independent basis, Debye-Ang):
   XX=            -11.4464   YY=            -11.3127   ZZ=            -11.7860
   XY=              0.0000   XZ=              0.0000   YZ=              0.0000
 Traceless Quadrupole moment (field-independent basis, Debye-Ang):
   XX=              0.0686   YY=              0.2023   ZZ=             -0.2709
   XY=              0.0000   XZ=              0.0000   YZ=              0.0000
 Octapole moment (field-independent basis, Debye-Ang**2):
  XXX=              0.0000  YYY=              0.0000  ZZZ=              0.7934  XYY=              0.0000
  XXY=              0.0000  XXZ=              0.8047  XZZ=              0.0000  YZZ=              0.0000
  YYZ=             -0.3031  XYZ=              0.0000
 Hexadecapole moment (field-independent basis, Debye-Ang**3):
 XXXX=             -9.2996 YYYY=            -16.8314 ZZZZ=            -45.0545 XXXY=              0.0000
 XXXZ=              0.0000 YYYX=              0.0000 YYYZ=              0.0000 ZZZX=              0.0000
 ZZZY=              0.0000 XXYY=             -4.5841 XXZZ=             -9.0127 YYZZ=             -9.9800
 XXYZ=              0.0000 YYXZ=              0.0000 ZZXY=              0.0000
 N-N= 3.059459430654D+01 E-N=-3.296181698360D+02  KE= 1.134255504834D+02
 Symmetry A1   KE= 1.030318031734D+02
 Symmetry A2   KE= 7.008709993494D-35
 Symmetry B1   KE= 3.582376966511D+00
 Symmetry B2   KE= 6.811370343484D+00
 Calling FoFJK, ICntrl=      2127 FMM=F ISym2X=1 I1Cent= 0 IOpClX= 0 NMat=1 NMatS=1 NMatT=0.
 ***** Axes restored to original set *****
 -------------------------------------------------------------------
 Center     Atomic                   Forces (Hartrees/Bohr)
 Number     Number              X              Y              Z
 -------------------------------------------------------------------
      1        6           0.000000000    0.000000000    0.094904275
      2        1           0.000000000   -0.017754369   -0.014446544
      3        1           0.000000000    0.017754369   -0.014446544
      4        8           0.000000000    0.000000000   -0.066011186
 -------------------------------------------------------------------
 Cartesian Forces:  Max     0.094904275 RMS     0.034655614

 GradGradGradGradGradGradGradGradGradGradGradGradGradGradGradGradGradGrad
 Berny optimization.
 FormGI is forming the generalized inverse of G from B-inverse, IUseBI=4.
 Internal  Forces:  Max     0.066011186 RMS     0.027811640
 Search for a local minimum.
 Step number   1 out of a maximum of   20
 All quantities printed in internal units (Hartrees-Bohrs-Radians)
 Mixed Optimization -- RFO/linear search
 Second derivative matrix not updated -- first step.
 The second derivative matrix:
                          R1        R2        R3        A1        A2
           R1           0.37224
           R2           0.00000   0.37224
           R3           0.00000   0.00000   0.80209
           A1           0.00000   0.00000   0.00000   0.16000
           A2           0.00000   0.00000   0.00000   0.00000   0.16000
           A3           0.00000   0.00000   0.00000   0.00000   0.00000
           D1           0.00000   0.00000   0.00000   0.00000   0.00000
                          A3        D1
           A3           0.16000
           D1           0.00000   0.03565
 ITU=  0
     Eigenvalues ---    0.03565   0.16000   0.16000   0.37224   0.37224
     Eigenvalues ---    0.80209
 RFO step:  Lambda=-8.26815788D-03 EMin= 3.56487738D-02
 Linear search not attempted -- first point.
 Iteration  1 RMS(Cart)=  0.02984997 RMS(Int)=  0.00039012
 Iteration  2 RMS(Cart)=  0.00039956 RMS(Int)=  0.00000010
 Iteration  3 RMS(Cart)=  0.00000008 RMS(Int)=  0.00000000
 ClnCor:  largest displacement from symmetrization is 1.11D-11 for atom     1.
 Variable       Old X    -DE/DX   Delta X   Delta X   Delta X     New X
                                 (Linear)    (Quad)   (Total)
    R1        2.02210   0.02261   0.00000   0.05943   0.05943   2.08154
    R2        2.02210   0.02261   0.00000   0.05943   0.05943   2.08154
    R3        2.37803  -0.06601   0.00000  -0.08146  -0.08146   2.29657
    A1        2.08604  -0.00477   0.00000  -0.02836  -0.02836   2.05768
    A2        2.09857   0.00239   0.00000   0.01418   0.01418   2.11275
    A3        2.09857   0.00239   0.00000   0.01418   0.01418   2.11275
    D1        3.14159   0.00000   0.00000   0.00000   0.00000   3.14159
         Item               Value     Threshold  Converged?
 Maximum Force            0.066011     0.000450     NO 
 RMS     Force            0.027812     0.000300     NO 
 Maximum Displacement     0.048025     0.001800     NO 
 RMS     Displacement     0.029680     0.001200     NO 
 Predicted change in Energy=-4.195702D-03
 GradGradGradGradGradGradGradGradGradGradGradGradGradGradGradGradGradGrad

                          Input orientation:                          
 ---------------------------------------------------------------------
 Center     Atomic      Atomic             Coordinates (Angstroms)
 Number     Number       Type             X           Y           Z
 ---------------------------------------------------------------------
      1          6           0        0.000000    0.000000   -0.536797
      2          1           0        0.000000   -0.943658   -1.104966
      3          1           0        0.000000    0.943658   -1.104966
      4          8           0        0.000000    0.000000    0.678497
 ---------------------------------------------------------------------
                    Distance matrix (angstroms):
                    1          2          3          4
     1  C    0.000000
     2  H    1.101502   0.000000
     3  H    1.101502   1.887316   0.000000
     4  O    1.215293   2.017729   2.017729   0.000000
 Stoichiometry    CH2O
 Framework group  C2V[C2(CO),SGV(H2)]
 Deg. of freedom     3
 Full point group                 C2V     NOp   4
 Largest Abelian subgroup         C2V     NOp   4
 Largest concise Abelian subgroup C2      NOp   2
                         Standard orientation:                         
 ---------------------------------------------------------------------
 Center     Atomic      Atomic             Coordinates (Angstroms)
 Number     Number       Type             X           Y           Z
 ---------------------------------------------------------------------
      1          6           0        0.000000    0.000000   -0.536626
      2          1           0        0.000000    0.943658   -1.104795
      3          1           0        0.000000   -0.943658   -1.104795
      4          8           0        0.000000    0.000000    0.678668
 ---------------------------------------------------------------------
 Rotational constants (GHZ):    281.5612903     38.5100489     33.8766323
 Standard basis: 6-31G(d) (6D, 7F)
 There are    18 symmetry adapted cartesian basis functions of A1  symmetry.
 There are     2 symmetry adapted cartesian basis functions of A2  symmetry.
 There are     6 symmetry adapted cartesian basis functions of B1  symmetry.
 There are     8 symmetry adapted cartesian basis functions of B2  symmetry.
 There are    18 symmetry adapted basis functions of A1  symmetry.
 There are     2 symmetry adapted basis functions of A2  symmetry.
 There are     6 symmetry adapted basis functions of B1  symmetry.
 There are     8 symmetry adapted basis functions of B2  symmetry.
    34 basis functions,    64 primitive gaussians,    34 cartesian basis functions
     8 alpha electrons        8 beta electrons
       nuclear repulsion energy        31.1422969085 Hartrees.
 NAtoms=    4 NActive=    4 NUniq=    3 SFac= 1.78D+00 NAtFMM=   60 NAOKFM=F Big=F
 Integral buffers will be    131072 words long.
 Raffenetti 2 integral format.
 Two-electron integral symmetry is turned on.
 One-electron integrals computed using PRISM.
 NBasis=    34 RedAO= T EigKep=  1.82D-02  NBF=    18     2     6     8
 NBsUse=    34 1.00D-06 EigRej= -1.00D+00 NBFU=    18     2     6     8
 Initial guess from the checkpoint file:  "C:\Work\Gau-7496.chk"
 B after Tr=     0.000000    0.000000    0.000000
         Rot=    1.000000    0.000000    0.000000    0.000000 Ang=   0.00 deg.
 Initial guess orbital symmetries:
       Occupied  (A1) (A1) (A1) (A1) (B2) (A1) (B1) (B2)
       Virtual   (A1) (A1) (A1) (A1) (A1) (A1) (A1) (A1) (A1) (A1)
                 (A1) (A1) (A1) (A2) (A2) (B1) (B1) (B1) (B1) (B1)
                 (B2) (B2) (B2) (B2) (B2) (B2)
 ExpMin= 1.61D-01 ExpMax= 5.48D+03 ExpMxC= 8.25D+02 IAcc=1 IRadAn=         1 AccDes= 0.00D+00
 Harris functional with IExCor=  402 and IRadAn=       1 diagonalized for initial guess.
 HarFok:  IExCor=  402 AccDes= 0.00D+00 IRadAn=         1 IDoV= 1 UseB2=F ITyADJ=14
 ICtDFT=  3500011 ScaDFX=  1.000000  1.000000  1.000000  1.000000
 FoFCou: FMM=F IPFlag=           0 FMFlag=      100000 FMFlg1=           0
         NFxFlg=           0 DoJE=T BraDBF=F KetDBF=T FulRan=T
         wScrn=  0.000000 ICntrl=     500 IOpCl=  0 I1Cent=   200000004 NGrid=           0
         NMat0=    1 NMatS0=      1 NMatT0=    0 NMatD0=    1 NMtDS0=    0 NMtDT0=    0
 Petite list used in FoFCou.
 Keep R1 ints in memory in symmetry-blocked form, NReq=1062354.
 Requested convergence on RMS density matrix=1.00D-08 within 128 cycles.
 Requested convergence on MAX density matrix=1.00D-06.
 Requested convergence on             energy=1.00D-06.
 No special actions if energy rises.
 Integral accuracy reduced to 1.0D-05 until final iterations.
 Initial convergence to 1.0D-05 achieved.  Increase integral accuracy.
 SCF Done:  E(RB3LYP) =  -114.500128654     A.U. after   11 cycles
            NFock= 11  Conv=0.13D-08     -V/T= 2.0090
 Calling FoFJK, ICntrl=      2127 FMM=F ISym2X=1 I1Cent= 0 IOpClX= 0 NMat=1 NMatS=1 NMatT=0.
 ***** Axes restored to original set *****
 -------------------------------------------------------------------
 Center     Atomic                   Forces (Hartrees/Bohr)
 Number     Number              X              Y              Z
 -------------------------------------------------------------------
      1        6           0.000000000    0.000000000    0.021591437
      2        1           0.000000000   -0.001652685   -0.005396565
      3        1           0.000000000    0.001652685   -0.005396565
      4        8           0.000000000    0.000000000   -0.010798308
 -------------------------------------------------------------------
 Cartesian Forces:  Max     0.021591437 RMS     0.007339971

 GradGradGradGradGradGradGradGradGradGradGradGradGradGradGradGradGradGrad
 Berny optimization.
 Using GEDIIS/GDIIS optimizer.
 FormGI is forming the generalized inverse of G from B-inverse, IUseBI=4.
 Internal  Forces:  Max     0.010798308 RMS     0.005250112
 Search for a local minimum.
 Step number   2 out of a maximum of   20
 All quantities printed in internal units (Hartrees-Bohrs-Radians)
 Mixed Optimization -- RFO/linear search
 Update second derivatives using D2CorX and points    1    2
 DE= -5.00D-03 DEPred=-4.20D-03 R= 1.19D+00
 TightC=F SS=  1.41D+00  RLast= 1.22D-01 DXNew= 5.0454D-01 3.6627D-01
 Trust test= 1.19D+00 RLast= 1.22D-01 DXMaxT set to 3.66D-01
 The second derivative matrix:
                          R1        R2        R3        A1        A2
           R1           0.36301
           R2          -0.00922   0.36301
           R3           0.02496   0.02496   0.73522
           A1           0.01360   0.01360  -0.04022   0.15750
           A2          -0.00680  -0.00680   0.02011   0.00125   0.15938
           A3          -0.00680  -0.00680   0.02011   0.00125  -0.00062
           D1           0.00000   0.00000   0.00000   0.00000   0.00000
                          A3        D1
           A3           0.15938
           D1           0.00000   0.03565
 ITU=  1  0
 Use linear search instead of GDIIS.
     Eigenvalues ---    0.03565   0.14866   0.16000   0.35438   0.37224
     Eigenvalues ---    0.74222
 RFO step:  Lambda=-2.52501526D-04 EMin= 3.56487738D-02
 Quartic linear search produced a step of  0.22373.
 Iteration  1 RMS(Cart)=  0.01427678 RMS(Int)=  0.00024639
 Iteration  2 RMS(Cart)=  0.00026048 RMS(Int)=  0.00000003
 Iteration  3 RMS(Cart)=  0.00000002 RMS(Int)=  0.00000000
 ClnCor:  largest displacement from symmetrization is 2.60D-11 for atom     1.
 Variable       Old X    -DE/DX   Delta X   Delta X   Delta X     New X
                                 (Linear)    (Quad)   (Total)
    R1        2.08154   0.00420   0.01330   0.00087   0.01417   2.09570
    R2        2.08154   0.00420   0.01330   0.00087   0.01417   2.09570
    R3        2.29657  -0.01080  -0.01823   0.00017  -0.01805   2.27852
    A1        2.05768  -0.00523  -0.00634  -0.03286  -0.03921   2.01847
    A2        2.11275   0.00262   0.00317   0.01643   0.01960   2.13236
    A3        2.11275   0.00262   0.00317   0.01643   0.01960   2.13236
    D1        3.14159   0.00000   0.00000   0.00000   0.00000   3.14159
         Item               Value     Threshold  Converged?
 Maximum Force            0.010798     0.000450     NO 
 RMS     Force            0.005250     0.000300     NO 
 Maximum Displacement     0.025660     0.001800     NO 
 RMS     Displacement     0.014375     0.001200     NO 
 Predicted change in Energy=-3.288235D-04
 GradGradGradGradGradGradGradGradGradGradGradGradGradGradGradGradGradGrad

                          Input orientation:                          
 ---------------------------------------------------------------------
 Center     Atomic      Atomic             Coordinates (Angstroms)
 Number     Number       Type             X           Y           Z
 ---------------------------------------------------------------------
      1          6           0        0.000000    0.000000   -0.523218
      2          1           0        0.000000   -0.938684   -1.113769
      3          1           0        0.000000    0.938684   -1.113769
      4          8           0        0.000000    0.000000    0.682523
 ---------------------------------------------------------------------
                    Distance matrix (angstroms):
                    1          2          3          4
     1  C    0.000000
     2  H    1.108998   0.000000
     3  H    1.108998   1.877368   0.000000
     4  O    1.205742   2.026769   2.026769   0.000000
 Stoichiometry    CH2O
 Framework group  C2V[C2(CO),SGV(H2)]
 Deg. of freedom     3
 Full point group                 C2V     NOp   4
 Largest Abelian subgroup         C2V     NOp   4
 Largest concise Abelian subgroup C2      NOp   2
                         Standard orientation:                         
 ---------------------------------------------------------------------
 Center     Atomic      Atomic             Coordinates (Angstroms)
 Number     Number       Type             X           Y           Z
 ---------------------------------------------------------------------
      1          6           0        0.000000    0.000000   -0.529052
      2          1           0        0.000000    0.938684   -1.119602
      3          1           0        0.000000   -0.938684   -1.119602
      4          8           0        0.000000    0.000000    0.676690
 ---------------------------------------------------------------------
 Rotational constants (GHZ):    284.5531840     38.7393000     34.0972701
 Standard basis: 6-31G(d) (6D, 7F)
 There are    18 symmetry adapted cartesian basis functions of A1  symmetry.
 There are     2 symmetry adapted cartesian basis functions of A2  symmetry.
 There are     6 symmetry adapted cartesian basis functions of B1  symmetry.
 There are     8 symmetry adapted cartesian basis functions of B2  symmetry.
 There are    18 symmetry adapted basis functions of A1  symmetry.
 There are     2 symmetry adapted basis functions of A2  symmetry.
 There are     6 symmetry adapted basis functions of B1  symmetry.
 There are     8 symmetry adapted basis functions of B2  symmetry.
    34 basis functions,    64 primitive gaussians,    34 cartesian basis functions
     8 alpha electrons        8 beta electrons
       nuclear repulsion energy        31.2516697393 Hartrees.
 NAtoms=    4 NActive=    4 NUniq=    3 SFac= 1.78D+00 NAtFMM=   60 NAOKFM=F Big=F
 Integral buffers will be    131072 words long.
 Raffenetti 2 integral format.
 Two-electron integral symmetry is turned on.
 One-electron integrals computed using PRISM.
 NBasis=    34 RedAO= T EigKep=  1.80D-02  NBF=    18     2     6     8
 NBsUse=    34 1.00D-06 EigRej= -1.00D+00 NBFU=    18     2     6     8
 Initial guess from the checkpoint file:  "C:\Work\Gau-7496.chk"
 B after Tr=     0.000000    0.000000    0.000000
         Rot=    1.000000    0.000000    0.000000    0.000000 Ang=   0.00 deg.
 Initial guess orbital symmetries:
       Occupied  (A1) (A1) (A1) (A1) (B2) (A1) (B1) (B2)
       Virtual   (A1) (A1) (A1) (A1) (A1) (A1) (A1) (A1) (A1) (A1)
                 (A1) (A1) (A1) (A2) (A2) (B1) (B1) (B1) (B1) (B1)
                 (B2) (B2) (B2) (B2) (B2) (B2)
 ExpMin= 1.61D-01 ExpMax= 5.48D+03 ExpMxC= 8.25D+02 IAcc=1 IRadAn=         1 AccDes= 0.00D+00
 Harris functional with IExCor=  402 and IRadAn=       1 diagonalized for initial guess.
 HarFok:  IExCor=  402 AccDes= 0.00D+00 IRadAn=         1 IDoV= 1 UseB2=F ITyADJ=14
 ICtDFT=  3500011 ScaDFX=  1.000000  1.000000  1.000000  1.000000
 FoFCou: FMM=F IPFlag=           0 FMFlag=      100000 FMFlg1=           0
         NFxFlg=           0 DoJE=T BraDBF=F KetDBF=T FulRan=T
         wScrn=  0.000000 ICntrl=     500 IOpCl=  0 I1Cent=   200000004 NGrid=           0
         NMat0=    1 NMatS0=      1 NMatT0=    0 NMatD0=    1 NMtDS0=    0 NMtDT0=    0
 Petite list used in FoFCou.
 Keep R1 ints in memory in symmetry-blocked form, NReq=1062354.
 Requested convergence on RMS density matrix=1.00D-08 within 128 cycles.
 Requested convergence on MAX density matrix=1.00D-06.
 Requested convergence on             energy=1.00D-06.
 No special actions if energy rises.
 Integral accuracy reduced to 1.0D-05 until final iterations.
 Initial convergence to 1.0D-05 achieved.  Increase integral accuracy.
 SCF Done:  E(RB3LYP) =  -114.500464027     A.U. after   11 cycles
            NFock= 11  Conv=0.47D-09     -V/T= 2.0089
 Calling FoFJK, ICntrl=      2127 FMM=F ISym2X=1 I1Cent= 0 IOpClX= 0 NMat=1 NMatS=1 NMatT=0.
 ***** Axes restored to original set *****
 -------------------------------------------------------------------
 Center     Atomic                   Forces (Hartrees/Bohr)
 Number     Number              X              Y              Z
 -------------------------------------------------------------------
      1        6           0.000000000    0.000000000    0.000179247
      2        1           0.000000000   -0.000326331   -0.001012874
      3        1           0.000000000    0.000326331   -0.001012874
      4        8           0.000000000    0.000000000    0.001846500
 -------------------------------------------------------------------
 Cartesian Forces:  Max     0.001846500 RMS     0.000689596

 GradGradGradGradGradGradGradGradGradGradGradGradGradGradGradGradGradGrad
 Berny optimization.
 Using GEDIIS/GDIIS optimizer.
 FormGI is forming the generalized inverse of G from B-inverse, IUseBI=4.
 Internal  Forces:  Max     0.001846500 RMS     0.000934112
 Search for a local minimum.
 Step number   3 out of a maximum of   20
 All quantities printed in internal units (Hartrees-Bohrs-Radians)
 Mixed Optimization -- En-DIIS/RFO-DIIS
 Update second derivatives using D2CorX and points    1    2    3
 DE= -3.35D-04 DEPred=-3.29D-04 R= 1.02D+00
 TightC=F SS=  1.41D+00  RLast= 5.51D-02 DXNew= 6.1599D-01 1.6522D-01
 Trust test= 1.02D+00 RLast= 5.51D-02 DXMaxT set to 3.66D-01
 The second derivative matrix:
                          R1        R2        R3        A1        A2
           R1           0.35812
           R2          -0.01412   0.35812
           R3           0.01508   0.01508   0.84959
           A1           0.02069   0.02069  -0.03848   0.14785
           A2          -0.01035  -0.01035   0.01924   0.00608   0.15696
           A3          -0.01035  -0.01035   0.01924   0.00608  -0.00304
           D1           0.00000   0.00000   0.00000   0.00000   0.00000
                          A3        D1
           A3           0.15696
           D1           0.00000   0.03565
 ITU=  1  1  0
 Use linear search instead of GDIIS.
     Eigenvalues ---    0.03565   0.13211   0.16000   0.34983   0.37224
     Eigenvalues ---    0.85342
 RFO step:  Lambda=-1.42072329D-05 EMin= 3.56487738D-02
 Quartic linear search produced a step of  0.07841.
 Iteration  1 RMS(Cart)=  0.00338654 RMS(Int)=  0.00000839
 Iteration  2 RMS(Cart)=  0.00000893 RMS(Int)=  0.00000000
 Iteration  3 RMS(Cart)=  0.00000000 RMS(Int)=  0.00000000
 ClnCor:  largest displacement from symmetrization is 3.76D-12 for atom     1.
 Variable       Old X    -DE/DX   Delta X   Delta X   Delta X     New X
                                 (Linear)    (Quad)   (Total)
    R1        2.09570   0.00082   0.00111   0.00182   0.00293   2.09863
    R2        2.09570   0.00082   0.00111   0.00182   0.00293   2.09863
    R3        2.27852   0.00185  -0.00142   0.00301   0.00159   2.28012
    A1        2.01847  -0.00096  -0.00307  -0.00401  -0.00709   2.01139
    A2        2.13236   0.00048   0.00154   0.00201   0.00354   2.13590
    A3        2.13236   0.00048   0.00154   0.00201   0.00354   2.13590
    D1        3.14159   0.00000   0.00000   0.00000   0.00000   3.14159
         Item               Value     Threshold  Converged?
 Maximum Force            0.001847     0.000450     NO 
 RMS     Force            0.000934     0.000300     NO 
 Maximum Displacement     0.005118     0.001800     NO 
 RMS     Displacement     0.003389     0.001200     NO 
 Predicted change in Energy=-8.998193D-06
 GradGradGradGradGradGradGradGradGradGradGradGradGradGradGradGradGradGrad

                          Input orientation:                          
 ---------------------------------------------------------------------
 Center     Atomic      Atomic             Coordinates (Angstroms)
 Number     Number       Type             X           Y           Z
 ---------------------------------------------------------------------
      1          6           0        0.000000    0.000000   -0.521353
      2          1           0        0.000000   -0.937895   -1.116055
      3          1           0        0.000000    0.937895   -1.116055
      4          8           0        0.000000    0.000000    0.685232
 ---------------------------------------------------------------------
                    Distance matrix (angstroms):
                    1          2          3          4
     1  C    0.000000
     2  H    1.110548   0.000000
     3  H    1.110548   1.875790   0.000000
     4  O    1.206585   2.030833   2.030833   0.000000
 Stoichiometry    CH2O
 Framework group  C2V[C2(CO),SGV(H2)]
 Deg. of freedom     3
 Full point group                 C2V     NOp   4
 Largest Abelian subgroup         C2V     NOp   4
 Largest concise Abelian subgroup C2      NOp   2
                         Standard orientation:                         
 ---------------------------------------------------------------------
 Center     Atomic      Atomic             Coordinates (Angstroms)
 Number     Number       Type             X           Y           Z
 ---------------------------------------------------------------------
      1          6           0        0.000000    0.000000   -0.528955
      2          1           0        0.000000    0.937895   -1.123657
      3          1           0        0.000000   -0.937895   -1.123657
      4          8           0        0.000000    0.000000    0.677630
 ---------------------------------------------------------------------
 Rotational constants (GHZ):    285.0320485     38.6318564     34.0208377
 Standard basis: 6-31G(d) (6D, 7F)
 There are    18 symmetry adapted cartesian basis functions of A1  symmetry.
 There are     2 symmetry adapted cartesian basis functions of A2  symmetry.
 There are     6 symmetry adapted cartesian basis functions of B1  symmetry.
 There are     8 symmetry adapted cartesian basis functions of B2  symmetry.
 There are    18 symmetry adapted basis functions of A1  symmetry.
 There are     2 symmetry adapted basis functions of A2  symmetry.
 There are     6 symmetry adapted basis functions of B1  symmetry.
 There are     8 symmetry adapted basis functions of B2  symmetry.
    34 basis functions,    64 primitive gaussians,    34 cartesian basis functions
     8 alpha electrons        8 beta electrons
       nuclear repulsion energy        31.2208306470 Hartrees.
 NAtoms=    4 NActive=    4 NUniq=    3 SFac= 1.78D+00 NAtFMM=   60 NAOKFM=F Big=F
 Integral buffers will be    131072 words long.
 Raffenetti 2 integral format.
 Two-electron integral symmetry is turned on.
 One-electron integrals computed using PRISM.
 NBasis=    34 RedAO= T EigKep=  1.81D-02  NBF=    18     2     6     8
 NBsUse=    34 1.00D-06 EigRej= -1.00D+00 NBFU=    18     2     6     8
 Initial guess from the checkpoint file:  "C:\Work\Gau-7496.chk"
 B after Tr=     0.000000    0.000000    0.000000
         Rot=    1.000000    0.000000    0.000000    0.000000 Ang=   0.00 deg.
 Initial guess orbital symmetries:
       Occupied  (A1) (A1) (A1) (A1) (B2) (A1) (B1) (B2)
       Virtual   (A1) (A1) (A1) (A1) (A1) (A1) (A1) (A1) (A1) (A1)
                 (A1) (A1) (A1) (A2) (A2) (B1) (B1) (B1) (B1) (B1)
                 (B2) (B2) (B2) (B2) (B2) (B2)
 Keep R1 ints in memory in symmetry-blocked form, NReq=1062354.
 Requested convergence on RMS density matrix=1.00D-08 within 128 cycles.
 Requested convergence on MAX density matrix=1.00D-06.
 Requested convergence on             energy=1.00D-06.
 No special actions if energy rises.
 SCF Done:  E(RB3LYP) =  -114.500472583     A.U. after    7 cycles
            NFock=  7  Conv=0.68D-08     -V/T= 2.0090
 Calling FoFJK, ICntrl=      2127 FMM=F ISym2X=1 I1Cent= 0 IOpClX= 0 NMat=1 NMatS=1 NMatT=0.
 ***** Axes restored to original set *****
 -------------------------------------------------------------------
 Center     Atomic                   Forces (Hartrees/Bohr)
 Number     Number              X              Y              Z
 -------------------------------------------------------------------
      1        6           0.000000000    0.000000000    0.000124079
      2        1           0.000000000    0.000060938    0.000038853
      3        1           0.000000000   -0.000060938    0.000038853
      4        8           0.000000000    0.000000000   -0.000201785
 -------------------------------------------------------------------
 Cartesian Forces:  Max     0.000201785 RMS     0.000074475

 GradGradGradGradGradGradGradGradGradGradGradGradGradGradGradGradGradGrad
 Berny optimization.
 Using GEDIIS/GDIIS optimizer.
 FormGI is forming the generalized inverse of G from B-inverse, IUseBI=4.
 Internal  Forces:  Max     0.000201785 RMS     0.000085493
 Search for a local minimum.
 Step number   4 out of a maximum of   20
 All quantities printed in internal units (Hartrees-Bohrs-Radians)
 Mixed Optimization -- En-DIIS/RFO-DIIS
 Swapping is turned off.
 Update second derivatives using D2CorX and points    1    2    3    4
 DE= -8.56D-06 DEPred=-9.00D-06 R= 9.51D-01
 TightC=F SS=  1.41D+00  RLast= 9.75D-03 DXNew= 6.1599D-01 2.9241D-02
 Trust test= 9.51D-01 RLast= 9.75D-03 DXMaxT set to 3.66D-01
 The second derivative matrix:
                          R1        R2        R3        A1        A2
           R1           0.36213
           R2          -0.01011   0.36213
           R3           0.03490   0.03490   0.85712
           A1           0.01872   0.01872  -0.04497   0.14679
           A2          -0.00936  -0.00936   0.02248   0.00660   0.15670
           A3          -0.00936  -0.00936   0.02248   0.00660  -0.00330
           D1           0.00000   0.00000   0.00000   0.00000   0.00000
                          A3        D1
           A3           0.15670
           D1           0.00000   0.03565
 ITU=  1  1  1  0
     Eigenvalues ---    0.03565   0.13004   0.16000   0.35370   0.37224
     Eigenvalues ---    0.86559
 En-DIIS/RFO-DIIS IScMMF=        0 using points:     4    3
 RFO step:  Lambda=-5.93409147D-08.
 DidBck=F Rises=F RFO-DIIS coefs:    0.95984    0.04016
 Iteration  1 RMS(Cart)=  0.00012833 RMS(Int)=  0.00000000
 Iteration  2 RMS(Cart)=  0.00000000 RMS(Int)=  0.00000000
 ClnCor:  largest displacement from symmetrization is 3.55D-12 for atom     1.
 Variable       Old X    -DE/DX   Delta X   Delta X   Delta X     New X
                                 (Linear)    (Quad)   (Total)
    R1        2.09863  -0.00007  -0.00012  -0.00006  -0.00018   2.09845
    R2        2.09863  -0.00007  -0.00012  -0.00006  -0.00018   2.09845
    R3        2.28012  -0.00020  -0.00006  -0.00016  -0.00022   2.27989
    A1        2.01139   0.00000   0.00028  -0.00031  -0.00002   2.01136
    A2        2.13590   0.00000  -0.00014   0.00015   0.00001   2.13591
    A3        2.13590   0.00000  -0.00014   0.00015   0.00001   2.13591
    D1        3.14159   0.00000   0.00000   0.00000   0.00000   3.14159
         Item               Value     Threshold  Converged?
 Maximum Force            0.000202     0.000450     YES
 RMS     Force            0.000085     0.000300     YES
 Maximum Displacement     0.000206     0.001800     YES
 RMS     Displacement     0.000128     0.001200     YES
 Predicted change in Energy=-3.554698D-08
 Optimization completed.
    -- Stationary point found.
                           ----------------------------
                           !   Optimized Parameters   !
                           ! (Angstroms and Degrees)  !
 --------------------------                            --------------------------
 ! Name  Definition              Value          Derivative Info.                !
 --------------------------------------------------------------------------------
 ! R1    R(1,2)                  1.1105         -DE/DX =   -0.0001              !
 ! R2    R(1,3)                  1.1105         -DE/DX =   -0.0001              !
 ! R3    R(1,4)                  1.2066         -DE/DX =   -0.0002              !
 ! A1    A(2,1,3)              115.2439         -DE/DX =    0.0                 !
 ! A2    A(2,1,4)              122.378          -DE/DX =    0.0                 !
 ! A3    A(3,1,4)              122.378          -DE/DX =    0.0                 !
 ! D1    D(2,1,4,3)            180.0            -DE/DX =    0.0                 !
 --------------------------------------------------------------------------------
 GradGradGradGradGradGradGradGradGradGradGradGradGradGradGradGradGradGrad

                          Input orientation:                          
 ---------------------------------------------------------------------
 Center     Atomic      Atomic             Coordinates (Angstroms)
 Number     Number       Type             X           Y           Z
 ---------------------------------------------------------------------
      1          6           0        0.000000    0.000000   -0.521353
      2          1           0        0.000000   -0.937895   -1.116055
      3          1           0        0.000000    0.937895   -1.116055
      4          8           0        0.000000    0.000000    0.685232
 ---------------------------------------------------------------------
                    Distance matrix (angstroms):
                    1          2          3          4
     1  C    0.000000
     2  H    1.110548   0.000000
     3  H    1.110548   1.875790   0.000000
     4  O    1.206585   2.030833   2.030833   0.000000
 Stoichiometry    CH2O
 Framework group  C2V[C2(CO),SGV(H2)]
 Deg. of freedom     3
 Full point group                 C2V     NOp   4
 Largest Abelian subgroup         C2V     NOp   4
 Largest concise Abelian subgroup C2      NOp   2
                         Standard orientation:                         
 ---------------------------------------------------------------------
 Center     Atomic      Atomic             Coordinates (Angstroms)
 Number     Number       Type             X           Y           Z
 ---------------------------------------------------------------------
      1          6           0        0.000000    0.000000   -0.528955
      2          1           0        0.000000    0.937895   -1.123657
      3          1           0        0.000000   -0.937895   -1.123657
      4          8           0        0.000000    0.000000    0.677630
 ---------------------------------------------------------------------
 Rotational constants (GHZ):    285.0320485     38.6318564     34.0208377

 **********************************************************************

            Population analysis using the SCF density.

 **********************************************************************

 Orbital symmetries:
       Occupied  (A1) (A1) (A1) (A1) (B2) (A1) (B1) (B2)
       Virtual   (B1) (A1) (B2) (A1) (B1) (A1) (B2) (A1) (B2) (A1)
                 (A1) (B1) (B2) (A1) (A2) (B1) (A1) (B2) (A2) (A1)
                 (A1) (B1) (B2) (A1) (A1) (A1)
 The electronic state is 1-A1.
 Alpha  occ. eigenvalues --  -19.16977 -10.28911  -1.06081  -0.63753  -0.49529
 Alpha  occ. eigenvalues --   -0.44954  -0.39917  -0.26850
 Alpha virt. eigenvalues --   -0.04214   0.10121   0.18199   0.21873   0.50658
 Alpha virt. eigenvalues --    0.62355   0.62680   0.69389   0.81381   0.83713
 Alpha virt. eigenvalues --    0.89047   0.96009   1.05915   1.37726   1.50579
 Alpha virt. eigenvalues --    1.51002   1.68171   1.84980   1.93136   2.12607
 Alpha virt. eigenvalues --    2.27899   2.54096   2.65674   2.91066   3.68297
 Alpha virt. eigenvalues --    4.05546
          Condensed to atoms (all electrons):
               1          2          3          4
     1  C    4.700079   0.331079   0.331079   0.557319
     2  H    0.331079   0.697653  -0.094955  -0.055005
     3  H    0.331079  -0.094955   0.697653  -0.055005
     4  O    0.557319  -0.055005  -0.055005   7.875592
 Mulliken charges:
               1
     1  C    0.080444
     2  H    0.121228
     3  H    0.121228
     4  O   -0.322901
 Sum of Mulliken charges =   0.00000
 Mulliken charges with hydrogens summed into heavy atoms:
               1
     1  C    0.322901
     4  O   -0.322901
 Electronic spatial extent (au):  <R**2>=             60.3170
 Charge=              0.0000 electrons
 Dipole moment (field-independent basis, Debye):
    X=              0.0000    Y=              0.0000    Z=             -2.1867  Tot=              2.1867
 Quadrupole moment (field-independent basis, Debye-Ang):
   XX=            -11.4052   YY=            -11.5084   ZZ=            -11.9277
   XY=              0.0000   XZ=              0.0000   YZ=              0.0000
 Traceless Quadrupole moment (field-independent basis, Debye-Ang):
   XX=              0.2085   YY=              0.1054   ZZ=             -0.3139
   XY=              0.0000   XZ=              0.0000   YZ=              0.0000
 Octapole moment (field-independent basis, Debye-Ang**2):
  XXX=              0.0000  YYY=              0.0000  ZZZ=              1.2469  XYY=              0.0000
  XXY=              0.0000  XXZ=              0.9143  XZZ=              0.0000  YZZ=              0.0000
  YYZ=              0.0672  XYZ=              0.0000
 Hexadecapole moment (field-independent basis, Debye-Ang**3):
 XXXX=             -9.1922 YYYY=            -17.9947 ZZZZ=            -44.4059 XXXY=              0.0000
 XXXZ=              0.0000 YYYX=              0.0000 YYYZ=              0.0000 ZZZX=              0.0000
 ZZZY=              0.0000 XXYY=             -4.7351 XXZZ=             -8.9033 YYZZ=            -10.1697
 XXYZ=              0.0000 YYXZ=              0.0000 ZZXY=              0.0000
 N-N= 3.122083064704D+01 E-N=-3.308431406026D+02  KE= 1.134840779706D+02
 Symmetry A1   KE= 1.031335035482D+02
 Symmetry A2   KE= 6.120775891423D-35
 Symmetry B1   KE= 3.635281576167D+00
 Symmetry B2   KE= 6.715292846222D+00
 1|1|UNPC-CBEGRAD02|FOpt|RB3LYP|6-31G(d)|C1H2O1|GPD20001|30-Nov-2021|0|
 |# opt freq b3lyp/6-31g(d)||H2CO opt + freq||0,1|C,0.,0.,-0.5213531338
 |H,0.,-0.9378949157,-1.1160554184|H,0.,0.9378949157,-1.1160554184|O,0.
 ,0.,0.6852318706||Version=EM64W-G09RevD.01|State=1-A1|HF=-114.5004726|
 RMSD=6.751e-009|RMSF=7.448e-005|Dipole=0.,0.,-0.8603131|Quadrupole=0.1
 550447,0.0783549,-0.2333996,0.,0.,0.|PG=C02V [C2(C1O1),SGV(H2)]||@


 A COMPUTER IS LIKE A HORSE, IT WILL SENSE WEAKNESS.
     -- GREG WETTSTEIN
 Job cpu time:       0 days  0 hours  0 minutes 17.0 seconds.
 File lengths (MBytes):  RWF=      5 Int=      0 D2E=      0 Chk=      1 Scr=      1
 Normal termination of Gaussian 09 at Tue Nov 30 13:23:32 2021.
 Link1:  Proceeding to internal job step number  2.
 --------------------------------------------------------------------
 #N Geom=AllCheck Guess=TCheck SCRF=Check GenChk RB3LYP/6-31G(d) Freq
 --------------------------------------------------------------------
 1/10=4,29=7,30=1,38=1,40=1/1,3;
 2/12=2,40=1/2;
 3/5=1,6=6,7=1,11=2,14=-4,16=1,25=1,30=1,70=2,71=2,74=-5,116=1,140=1/1,2,3;
 4/5=101/1;
 5/5=2,98=1/2;
 8/6=4,10=90,11=11/1;
 11/6=1,8=1,9=11,15=111,16=1/1,2,10;
 10/6=1/2;
 6/7=2,8=2,9=2,10=2,18=1,28=1/1;
 7/8=1,10=1,25=1/1,2,3,16;
 1/10=4,30=1/3;
 99//99;
 Structure from the checkpoint file:  "C:\Work\Gau-7496.chk"
 ---------------
 H2CO opt + freq
 ---------------
 Charge =  0 Multiplicity = 1
 Redundant internal coordinates found in file.
 C,0,0.,0.,-0.5213531338
 H,0,0.,-0.9378949157,-1.1160554184
 H,0,0.,0.9378949157,-1.1160554184
 O,0,0.,0.,0.6852318706
 Recover connectivity data from disk.

 GradGradGradGradGradGradGradGradGradGradGradGradGradGradGradGradGradGrad
 Berny optimization.
 Initialization pass.
                           ----------------------------
                           !    Initial Parameters    !
                           ! (Angstroms and Degrees)  !
 --------------------------                            --------------------------
 ! Name  Definition              Value          Derivative Info.                !
 --------------------------------------------------------------------------------
 ! R1    R(1,2)                  1.1105         calculate D2E/DX2 analytically  !
 ! R2    R(1,3)                  1.1105         calculate D2E/DX2 analytically  !
 ! R3    R(1,4)                  1.2066         calculate D2E/DX2 analytically  !
 ! A1    A(2,1,3)              115.2439         calculate D2E/DX2 analytically  !
 ! A2    A(2,1,4)              122.378          calculate D2E/DX2 analytically  !
 ! A3    A(3,1,4)              122.378          calculate D2E/DX2 analytically  !
 ! D1    D(2,1,4,3)            180.0            calculate D2E/DX2 analytically  !
 --------------------------------------------------------------------------------
 Trust Radius=3.00D-01 FncErr=1.00D-07 GrdErr=1.00D-07
 Number of steps in this run=      2 maximum allowed number of steps=      2.
 GradGradGradGradGradGradGradGradGradGradGradGradGradGradGradGradGradGrad

                          Input orientation:                          
 ---------------------------------------------------------------------
 Center     Atomic      Atomic             Coordinates (Angstroms)
 Number     Number       Type             X           Y           Z
 ---------------------------------------------------------------------
      1          6           0        0.000000    0.000000   -0.521353
      2          1           0        0.000000   -0.937895   -1.116055
      3          1           0        0.000000    0.937895   -1.116055
      4          8           0        0.000000    0.000000    0.685232
 ---------------------------------------------------------------------
                    Distance matrix (angstroms):
                    1          2          3          4
     1  C    0.000000
     2  H    1.110548   0.000000
     3  H    1.110548   1.875790   0.000000
     4  O    1.206585   2.030833   2.030833   0.000000
 Stoichiometry    CH2O
 Framework group  C2V[C2(CO),SGV(H2)]
 Deg. of freedom     3
 Full point group                 C2V     NOp   4
 Largest Abelian subgroup         C2V     NOp   4
 Largest concise Abelian subgroup C2      NOp   2
                         Standard orientation:                         
 ---------------------------------------------------------------------
 Center     Atomic      Atomic             Coordinates (Angstroms)
 Number     Number       Type             X           Y           Z
 ---------------------------------------------------------------------
      1          6           0        0.000000    0.000000   -0.528955
      2          1           0        0.000000    0.937895   -1.123657
      3          1           0        0.000000   -0.937895   -1.123657
      4          8           0        0.000000    0.000000    0.677630
 ---------------------------------------------------------------------
 Rotational constants (GHZ):    285.0320485     38.6318564     34.0208377
 Standard basis: 6-31G(d) (6D, 7F)
 There are    18 symmetry adapted cartesian basis functions of A1  symmetry.
 There are     2 symmetry adapted cartesian basis functions of A2  symmetry.
 There are     6 symmetry adapted cartesian basis functions of B1  symmetry.
 There are     8 symmetry adapted cartesian basis functions of B2  symmetry.
 There are    18 symmetry adapted basis functions of A1  symmetry.
 There are     2 symmetry adapted basis functions of A2  symmetry.
 There are     6 symmetry adapted basis functions of B1  symmetry.
 There are     8 symmetry adapted basis functions of B2  symmetry.
    34 basis functions,    64 primitive gaussians,    34 cartesian basis functions
     8 alpha electrons        8 beta electrons
       nuclear repulsion energy        31.2208306470 Hartrees.
 NAtoms=    4 NActive=    4 NUniq=    3 SFac= 1.78D+00 NAtFMM=   60 NAOKFM=F Big=F
 Integral buffers will be    131072 words long.
 Raffenetti 2 integral format.
 Two-electron integral symmetry is turned on.
 One-electron integrals computed using PRISM.
 NBasis=    34 RedAO= T EigKep=  1.81D-02  NBF=    18     2     6     8
 NBsUse=    34 1.00D-06 EigRej= -1.00D+00 NBFU=    18     2     6     8
 Initial guess from the checkpoint file:  "C:\Work\Gau-7496.chk"
 B after Tr=     0.000000    0.000000    0.000000
         Rot=    1.000000    0.000000    0.000000    0.000000 Ang=   0.00 deg.
 Initial guess orbital symmetries:
       Occupied  (A1) (A1) (A1) (A1) (B2) (A1) (B1) (B2)
       Virtual   (B1) (A1) (B2) (A1) (B1) (A1) (B2) (A1) (B2) (A1)
                 (A1) (B1) (B2) (A1) (A2) (B1) (A1) (B2) (A2) (A1)
                 (A1) (B1) (B2) (A1) (A1) (A1)
 Keep R1 ints in memory in symmetry-blocked form, NReq=1062354.
 Requested convergence on RMS density matrix=1.00D-08 within 128 cycles.
 Requested convergence on MAX density matrix=1.00D-06.
 Requested convergence on             energy=1.00D-06.
 No special actions if energy rises.
 SCF Done:  E(RB3LYP) =  -114.500472583     A.U. after    1 cycles
            NFock=  1  Conv=0.10D-08     -V/T= 2.0090
 DoSCS=F DFT=T ScalE2(SS,OS)=  1.000000  1.000000
 Range of M.O.s used for correlation:     1    34
 NBasis=    34 NAE=     8 NBE=     8 NFC=     0 NFV=     0
 NROrb=     34 NOA=     8 NOB=     8 NVA=    26 NVB=    26
 Symmetrizing basis deriv contribution to polar:
 IMax=3 JMax=2 DiffMx= 0.00D+00
 G2DrvN: will do     5 centers at a time, making    1 passes.
 Calling FoFCou, ICntrl=  3107 FMM=F I1Cent=   0 AccDes= 0.00D+00.
 End of G2Drv F.D. properties file   721 does not exist.
 End of G2Drv F.D. properties file   722 does not exist.
 End of G2Drv F.D. properties file   788 does not exist.
          IDoAtm=1111
          Differentiating once with respect to electric field.
                with respect to dipole field.
          Differentiating once with respect to nuclear coordinates.
 Keep R1 ints in memory in symmetry-blocked form, NReq=1039629.
          There are    12 degrees of freedom in the 1st order CPHF.  IDoFFX=4 NUNeed=    12.
     12 vectors produced by pass  0 Test12= 1.73D-15 8.33D-09 XBig12= 1.70D+01 3.15D+00.
 AX will form    12 AO Fock derivatives at one time.
     12 vectors produced by pass  1 Test12= 1.73D-15 8.33D-09 XBig12= 4.31D+00 8.53D-01.
     12 vectors produced by pass  2 Test12= 1.73D-15 8.33D-09 XBig12= 2.76D-02 6.52D-02.
     12 vectors produced by pass  3 Test12= 1.73D-15 8.33D-09 XBig12= 5.17D-05 2.68D-03.
     12 vectors produced by pass  4 Test12= 1.73D-15 8.33D-09 XBig12= 3.73D-08 5.78D-05.
      6 vectors produced by pass  5 Test12= 1.73D-15 8.33D-09 XBig12= 3.59D-11 2.22D-06.
      1 vectors produced by pass  6 Test12= 1.73D-15 8.33D-09 XBig12= 4.41D-14 8.55D-08.
 InvSVY:  IOpt=1 It=  1 EMax= 5.62D-16
 Solved reduced A of dimension    67 with    12 vectors.
 Isotropic polarizability for W=    0.000000       13.09 Bohr**3.
 End of Minotr F.D. properties file   721 does not exist.
 End of Minotr F.D. properties file   722 does not exist.
 End of Minotr F.D. properties file   788 does not exist.

 **********************************************************************

            Population analysis using the SCF density.

 **********************************************************************

 Orbital symmetries:
       Occupied  (A1) (A1) (A1) (A1) (B2) (A1) (B1) (B2)
       Virtual   (B1) (A1) (B2) (A1) (B1) (A1) (B2) (A1) (B2) (A1)
                 (A1) (B1) (B2) (A1) (A2) (B1) (A1) (B2) (A2) (A1)
                 (A1) (B1) (B2) (A1) (A1) (A1)
 The electronic state is 1-A1.
 Alpha  occ. eigenvalues --  -19.16977 -10.28911  -1.06081  -0.63753  -0.49529
 Alpha  occ. eigenvalues --   -0.44954  -0.39917  -0.26850
 Alpha virt. eigenvalues --   -0.04214   0.10121   0.18199   0.21873   0.50658
 Alpha virt. eigenvalues --    0.62355   0.62680   0.69389   0.81381   0.83713
 Alpha virt. eigenvalues --    0.89047   0.96009   1.05915   1.37726   1.50579
 Alpha virt. eigenvalues --    1.51002   1.68171   1.84980   1.93136   2.12607
 Alpha virt. eigenvalues --    2.27899   2.54096   2.65674   2.91066   3.68297
 Alpha virt. eigenvalues --    4.05546
          Condensed to atoms (all electrons):
               1          2          3          4
     1  C    4.700079   0.331079   0.331079   0.557319
     2  H    0.331079   0.697653  -0.094955  -0.055005
     3  H    0.331079  -0.094955   0.697653  -0.055005
     4  O    0.557319  -0.055005  -0.055005   7.875592
 Mulliken charges:
               1
     1  C    0.080444
     2  H    0.121228
     3  H    0.121228
     4  O   -0.322900
 Sum of Mulliken charges =   0.00000
 Mulliken charges with hydrogens summed into heavy atoms:
               1
     1  C    0.322900
     4  O   -0.322900
 APT charges:
               1
     1  C    0.684707
     2  H   -0.075211
     3  H   -0.075211
     4  O   -0.534285
 Sum of APT charges =   0.00000
 APT charges with hydrogens summed into heavy atoms:
               1
     1  C    0.534285
     4  O   -0.534285
 Electronic spatial extent (au):  <R**2>=             60.3170
 Charge=              0.0000 electrons
 Dipole moment (field-independent basis, Debye):
    X=              0.0000    Y=              0.0000    Z=             -2.1867  Tot=              2.1867
 Quadrupole moment (field-independent basis, Debye-Ang):
   XX=            -11.4052   YY=            -11.5084   ZZ=            -11.9277
   XY=              0.0000   XZ=              0.0000   YZ=              0.0000
 Traceless Quadrupole moment (field-independent basis, Debye-Ang):
   XX=              0.2085   YY=              0.1054   ZZ=             -0.3139
   XY=              0.0000   XZ=              0.0000   YZ=              0.0000
 Octapole moment (field-independent basis, Debye-Ang**2):
  XXX=              0.0000  YYY=              0.0000  ZZZ=              1.2469  XYY=              0.0000
  XXY=              0.0000  XXZ=              0.9143  XZZ=              0.0000  YZZ=              0.0000
  YYZ=              0.0672  XYZ=              0.0000
 Hexadecapole moment (field-independent basis, Debye-Ang**3):
 XXXX=             -9.1922 YYYY=            -17.9947 ZZZZ=            -44.4059 XXXY=              0.0000
 XXXZ=              0.0000 YYYX=              0.0000 YYYZ=              0.0000 ZZZX=              0.0000
 ZZZY=              0.0000 XXYY=             -4.7351 XXZZ=             -8.9033 YYZZ=            -10.1697
 XXYZ=              0.0000 YYXZ=              0.0000 ZZXY=              0.0000
 N-N= 3.122083064704D+01 E-N=-3.308431403618D+02  KE= 1.134840778511D+02
 Symmetry A1   KE= 1.031335035096D+02
 Symmetry A2   KE= 6.120775832320D-35
 Symmetry B1   KE= 3.635281534903D+00
 Symmetry B2   KE= 6.715292806583D+00
  Exact polarizability:   6.762   0.000  14.129   0.000   0.000  18.365
 Approx polarizability:   8.961   0.000  16.851   0.000   0.000  30.949
 Calling FoFJK, ICntrl=    100127 FMM=F ISym2X=1 I1Cent= 0 IOpClX= 0 NMat=1 NMatS=1 NMatT=0.
 Full mass-weighted force constant matrix:
 Low frequencies ---   -0.0013    0.0014    0.0015   11.0029   16.3758   25.8720
 Low frequencies --- 1198.5963 1279.6691 1563.0192
 Diagonal vibrational polarizability:
        0.0271685       0.7102103       1.0243942
 Harmonic frequencies (cm**-1), IR intensities (KM/Mole), Raman scattering
 activities (A**4/AMU), depolarization ratios for plane and unpolarized
 incident light, reduced masses (AMU), force constants (mDyne/A),
 and normal coordinates:
                      1                      2                      3
                     B1                     B2                     A1
 Frequencies --   1198.5963              1279.6691              1563.0192
 Red. masses --      1.3702                 1.3419                 1.1281
 Frc consts  --      1.1598                 1.2947                 1.6237
 IR Inten    --      1.4504                12.5877                 6.4684
  Atom  AN      X      Y      Z        X      Y      Z        X      Y      Z
     1   6     0.17   0.00   0.00     0.00   0.15   0.00     0.00   0.00   0.02
     2   1    -0.70   0.00   0.00     0.00  -0.25  -0.65     0.00   0.35   0.61
     3   1    -0.70   0.00   0.00     0.00  -0.25   0.65     0.00  -0.35   0.61
     4   8    -0.04   0.00   0.00     0.00  -0.08   0.00     0.00   0.00  -0.09
                      4                      5                      6
                     A1                     A1                     B2
 Frequencies --   1849.4365              2916.4495              2967.4670
 Red. masses --      6.5215                 1.0447                 1.1221
 Frc consts  --     13.1425                 5.2353                 5.8217
 IR Inten    --     98.6561                55.9222               164.7047
  Atom  AN      X      Y      Z        X      Y      Z        X      Y      Z
     1   6     0.00   0.00   0.55     0.00   0.00   0.06     0.00   0.10   0.00
     2   1     0.00  -0.46  -0.26     0.00   0.61  -0.35     0.00  -0.60   0.37
     3   1     0.00   0.46  -0.26     0.00  -0.61  -0.35     0.00  -0.60  -0.37
     4   8     0.00   0.00  -0.38     0.00   0.00   0.00     0.00   0.00   0.00

 -------------------
 - Thermochemistry -
 -------------------
 Temperature   298.150 Kelvin.  Pressure   1.00000 Atm.
 Atom     1 has atomic number  6 and mass  12.00000
 Atom     2 has atomic number  1 and mass   1.00783
 Atom     3 has atomic number  1 and mass   1.00783
 Atom     4 has atomic number  8 and mass  15.99491
 Molecular mass:    30.01056 amu.
 Principal axes and moments of inertia in atomic units:
                           1         2         3
     Eigenvalues --     6.33171  46.71640  53.04811
           X            0.00000   0.00000   1.00000
           Y            0.00000   1.00000   0.00000
           Z            1.00000   0.00000   0.00000
 This molecule is an asymmetric top.
 Rotational symmetry number  2.
 Rotational temperatures (Kelvin)     13.67936     1.85403     1.63274
 Rotational constants (GHZ):         285.03205    38.63186    34.02084
 Zero-point vibrational energy      70428.0 (Joules/Mol)
                                   16.83269 (Kcal/Mol)
 Vibrational temperatures:   1724.51  1841.16  2248.83  2660.92  4196.12
          (Kelvin)           4269.52
 
 Zero-point correction=                           0.026825 (Hartree/Particle)
 Thermal correction to Energy=                    0.029691
 Thermal correction to Enthalpy=                  0.030635
 Thermal correction to Gibbs Free Energy=         0.005815
 Sum of electronic and zero-point Energies=           -114.473648
 Sum of electronic and thermal Energies=              -114.470782
 Sum of electronic and thermal Enthalpies=            -114.469837
 Sum of electronic and thermal Free Energies=         -114.494657
 
                     E (Thermal)             CV                S
                      KCal/Mol        Cal/Mol-Kelvin    Cal/Mol-Kelvin
 Total                   18.631              6.407             52.238
 Electronic               0.000              0.000              0.000
 Translational            0.889              2.981             36.130
 Rotational               0.889              2.981             16.025
 Vibrational             16.854              0.446              0.083
                       Q            Log10(Q)             Ln(Q)
 Total Bot       0.211403D-02         -2.674888         -6.159157
 Total V=0       0.460834D+10          9.663544         22.251133
 Vib (Bot)       0.461423D-12        -12.335901        -28.404462
 Vib (V=0)       0.100585D+01          0.002531          0.005828
 Electronic      0.100000D+01          0.000000          0.000000
 Translational   0.646199D+07          6.810366         15.681448
 Rotational      0.709001D+03          2.850647          6.563857
 ***** Axes restored to original set *****
 -------------------------------------------------------------------
 Center     Atomic                   Forces (Hartrees/Bohr)
 Number     Number              X              Y              Z
 -------------------------------------------------------------------
      1        6           0.000000000    0.000000000    0.000124085
      2        1           0.000000000    0.000060937    0.000038850
      3        1           0.000000000   -0.000060937    0.000038850
      4        8           0.000000000    0.000000000   -0.000201785
 -------------------------------------------------------------------
 Cartesian Forces:  Max     0.000201785 RMS     0.000074476
 FormGI is forming the generalized inverse of G from B-inverse, IUseBI=4.

 GradGradGradGradGradGradGradGradGradGradGradGradGradGradGradGradGradGrad
 Berny optimization.
 Internal  Forces:  Max     0.000201785 RMS     0.000085492
 Search for a local minimum.
 Step number   1 out of a maximum of    2
 All quantities printed in internal units (Hartrees-Bohrs-Radians)
 Second derivative matrix not updated -- analytic derivatives used.
 The second derivative matrix:
                          R1        R2        R3        A1        A2
           R1           0.30713
           R2           0.00690   0.30713
           R3           0.03800   0.03800   0.90110
           A1           0.00917   0.00917  -0.03592   0.08957
           A2           0.00068  -0.00985   0.01796  -0.04479   0.11894
           A3          -0.00985   0.00068   0.01796  -0.04479  -0.07416
           D1           0.00000   0.00000   0.00000   0.00000   0.00000
                          A3        D1
           A3           0.11894
           D1           0.00000   0.06119
 ITU=  0
     Eigenvalues ---    0.06119   0.12986   0.19208   0.30126   0.31134
     Eigenvalues ---    0.90830
 Angle between quadratic step and forces=  27.73 degrees.
 Linear search not attempted -- first point.
 Iteration  1 RMS(Cart)=  0.00013502 RMS(Int)=  0.00000000
 Iteration  2 RMS(Cart)=  0.00000000 RMS(Int)=  0.00000000
 ClnCor:  largest displacement from symmetrization is 2.55D-12 for atom     1.
 Variable       Old X    -DE/DX   Delta X   Delta X   Delta X     New X
                                 (Linear)    (Quad)   (Total)
    R1        2.09863  -0.00007   0.00000  -0.00020  -0.00020   2.09843
    R2        2.09863  -0.00007   0.00000  -0.00020  -0.00020   2.09843
    R3        2.28012  -0.00020   0.00000  -0.00021  -0.00021   2.27991
    A1        2.01139   0.00000   0.00000  -0.00003  -0.00003   2.01136
    A2        2.13590   0.00000   0.00000   0.00001   0.00001   2.13591
    A3        2.13590   0.00000   0.00000   0.00001   0.00001   2.13591
    D1        3.14159   0.00000   0.00000   0.00000   0.00000   3.14159
         Item               Value     Threshold  Converged?
 Maximum Force            0.000202     0.000450     YES
 RMS     Force            0.000085     0.000300     YES
 Maximum Displacement     0.000199     0.001800     YES
 RMS     Displacement     0.000135     0.001200     YES
 Predicted change in Energy=-3.573752D-08
 Optimization completed.
    -- Stationary point found.
                           ----------------------------
                           !   Optimized Parameters   !
                           ! (Angstroms and Degrees)  !
 --------------------------                            --------------------------
 ! Name  Definition              Value          Derivative Info.                !
 --------------------------------------------------------------------------------
 ! R1    R(1,2)                  1.1105         -DE/DX =   -0.0001              !
 ! R2    R(1,3)                  1.1105         -DE/DX =   -0.0001              !
 ! R3    R(1,4)                  1.2066         -DE/DX =   -0.0002              !
 ! A1    A(2,1,3)              115.2439         -DE/DX =    0.0                 !
 ! A2    A(2,1,4)              122.378          -DE/DX =    0.0                 !
 ! A3    A(3,1,4)              122.378          -DE/DX =    0.0                 !
 ! D1    D(2,1,4,3)            180.0            -DE/DX =    0.0                 !
 --------------------------------------------------------------------------------
 GradGradGradGradGradGradGradGradGradGradGradGradGradGradGradGradGradGrad

 1|1|UNPC-CBEGRAD02|Freq|RB3LYP|6-31G(d)|C1H2O1|GPD20001|30-Nov-2021|0|
 |#N Geom=AllCheck Guess=TCheck SCRF=Check GenChk RB3LYP/6-31G(d) Freq|
 |H2CO opt + freq||0,1|C,0.,0.,-0.5213531338|H,0.,-0.9378949157,-1.1160
 554184|H,0.,0.9378949157,-1.1160554184|O,0.,0.,0.6852318706||Version=E
 M64W-G09RevD.01|State=1-A1|HF=-114.5004726|RMSD=9.964e-010|RMSF=7.448e
 -005|ZeroPoint=0.0268246|Thermal=0.0296911|Dipole=0.,0.,-0.860313|Dipo
 leDeriv=0.1829368,0.,0.,0.,0.8703531,0.,0.,0.,1.0008301,0.0651169,0.,0
 .,0.,-0.2219126,-0.1138924,0.,-0.1090108,-0.0688366,0.0651169,0.,0.,0.
 ,-0.2219126,0.1138924,0.,0.1090108,-0.0688366,-0.3131706,0.,0.,0.,-0.4
 265279,0.,0.,0.,-0.8631569|Polar=6.7624823,0.,14.1292453,0.,0.,18.3652
 762|PG=C02V [C2(C1O1),SGV(H2)]|NImag=0||0.17382199,0.,0.58957648,0.,0.
 ,1.01997229,-0.05821549,0.,0.,0.01951459,0.,-0.23989598,-0.07668676,0.
 ,0.24213517,0.,-0.08151203,-0.10146843,0.,0.10655129,0.13272008,-0.058
 21549,0.,0.,0.01948906,0.,0.,0.01951459,0.,-0.23989598,0.07668676,0.,-
 0.01995640,0.01152102,0.,0.24213517,0.,0.08151203,-0.10146843,0.,-0.01
 152102,0.01078115,0.,-0.10655129,0.13272008,-0.05739100,0.,0.,0.019211
 84,0.,0.,0.01921184,0.,0.,0.01896732,0.,-0.10978452,0.,0.,0.01771721,-
 0.03656028,0.,0.01771721,0.03656028,0.,0.07435009,0.,0.,-0.81703544,0.
 ,-0.01834350,-0.04203280,0.,0.01834350,-0.04203280,0.,0.,0.90110103||0
 .,0.,-0.00012408,0.,-0.00006094,-0.00003885,0.,0.00006094,-0.00003885,
 0.,0.,0.00020178|||@


 A DANDELION FROM A LOVER MEANS MORE THAN AN ORCHID FROM A FRIEND.
 Job cpu time:       0 days  0 hours  0 minutes  9.0 seconds.
 File lengths (MBytes):  RWF=      5 Int=      0 D2E=      0 Chk=      1 Scr=      1
 Normal termination of Gaussian 09 at Tue Nov 30 13:23:41 2021.
