 Entering Link 1 = C:\G09W\l1.exe PID=     15508.
  
 Copyright (c) 1988,1990,1992,1993,1995,1998,2003,2009,2013,
            Gaussian, Inc.  All Rights Reserved.
  
 This is part of the Gaussian(R) 09 program.  It is based on
 the Gaussian(R) 03 system (copyright 2003, Gaussian, Inc.),
 the Gaussian(R) 98 system (copyright 1998, Gaussian, Inc.),
 the Gaussian(R) 94 system (copyright 1995, Gaussian, Inc.),
 the Gaussian 92(TM) system (copyright 1992, Gaussian, Inc.),
 the Gaussian 90(TM) system (copyright 1990, Gaussian, Inc.),
 the Gaussian 88(TM) system (copyright 1988, Gaussian, Inc.),
 the Gaussian 86(TM) system (copyright 1986, Carnegie Mellon
 University), and the Gaussian 82(TM) system (copyright 1983,
 Carnegie Mellon University). Gaussian is a federally registered
 trademark of Gaussian, Inc.
  
 This software contains proprietary and confidential information,
 including trade secrets, belonging to Gaussian, Inc.
  
 This software is provided under written license and may be
 used, copied, transmitted, or stored only in accord with that
 written license.
  
 The following legend is applicable only to US Government
 contracts under FAR:
  
                    RESTRICTED RIGHTS LEGEND
  
 Use, reproduction and disclosure by the US Government is
 subject to restrictions as set forth in subparagraphs (a)
 and (c) of the Commercial Computer Software - Restricted
 Rights clause in FAR 52.227-19.
  
 Gaussian, Inc.
 340 Quinnipiac St., Bldg. 40, Wallingford CT 06492
  
  
 ---------------------------------------------------------------
 Warning -- This program may not be used in any manner that
 competes with the business of Gaussian, Inc. or will provide
 assistance to any competitor of Gaussian, Inc.  The licensee
 of this program is prohibited from giving any competitor of
 Gaussian, Inc. access to this program.  By using this program,
 the user acknowledges that Gaussian, Inc. is engaged in the
 business of creating and licensing software in the field of
 computational chemistry and represents and warrants to the
 licensee that it is not a competitor of Gaussian, Inc. and that
 it will not use this program in any manner prohibited above.
 ---------------------------------------------------------------
  

 Cite this work as:
 Gaussian 09, Revision D.01,
 M. J. Frisch, G. W. Trucks, H. B. Schlegel, G. E. Scuseria, 
 M. A. Robb, J. R. Cheeseman, G. Scalmani, V. Barone, B. Mennucci, 
 G. A. Petersson, H. Nakatsuji, M. Caricato, X. Li, H. P. Hratchian, 
 A. F. Izmaylov, J. Bloino, G. Zheng, J. L. Sonnenberg, M. Hada, 
 M. Ehara, K. Toyota, R. Fukuda, J. Hasegawa, M. Ishida, T. Nakajima, 
 Y. Honda, O. Kitao, H. Nakai, T. Vreven, J. A. Montgomery, Jr., 
 J. E. Peralta, F. Ogliaro, M. Bearpark, J. J. Heyd, E. Brothers, 
 K. N. Kudin, V. N. Staroverov, T. Keith, R. Kobayashi, J. Normand, 
 K. Raghavachari, A. Rendell, J. C. Burant, S. S. Iyengar, J. Tomasi, 
 M. Cossi, N. Rega, J. M. Millam, M. Klene, J. E. Knox, J. B. Cross, 
 V. Bakken, C. Adamo, J. Jaramillo, R. Gomperts, R. E. Stratmann, 
 O. Yazyev, A. J. Austin, R. Cammi, C. Pomelli, J. W. Ochterski, 
 R. L. Martin, K. Morokuma, V. G. Zakrzewski, G. A. Voth, 
 P. Salvador, J. J. Dannenberg, S. Dapprich, A. D. Daniels, 
 O. Farkas, J. B. Foresman, J. V. Ortiz, J. Cioslowski, 
 and D. J. Fox, Gaussian, Inc., Wallingford CT, 2013.
 
 ******************************************
 Gaussian 09:  EM64W-G09RevD.01 13-Apr-2013
                01-Dec-2021 
 ******************************************
 ------------------------------------------------
 # opt=qst3 freq b3lyp/6-31g(d) geom=connectivity
 ------------------------------------------------
 1/5=1,14=-1,18=20,26=3,27=203,38=1,57=2/1,3;
 2/9=110,12=2,17=6,18=5,40=1/2;
 3/5=1,6=6,7=1,11=2,16=1,25=1,30=1,71=1,74=-5/1,2,3;
 4//1;
 5/5=2,38=5/2;
 6/7=2,8=2,9=2,10=2,28=1/1;
 7//1,2,3,16;
 1/5=1,14=-1,18=20,26=3,27=203/3(2);
 2/9=110/2;
 99//99;
 2/9=110/2;
 3/5=1,6=6,7=1,11=2,16=1,25=1,30=1,71=1,74=-5/1,2,3;
 4/5=5,16=3,69=1/1;
 5/5=2,38=5/2;
 7//1,2,3,16;
 1/5=1,14=-1,18=20,26=3,27=203/3(-5);
 2/9=110/2;
 6/7=2,8=2,9=2,10=2,19=2,28=1/1;
 99/9=1/99;
 --------
 reagents
 --------
 Symbolic Z-matrix:
 Charge =  0 Multiplicity = 1
 C                     0.        0.       -0.52895 
 H                     0.        0.9379   -1.12366 
 H                     0.       -0.9379   -1.12366 
 O                     0.        0.        0.67763 
 
 --------
 products
 --------
 Symbolic Z-matrix:
 Charge =  0 Multiplicity = 1
 C                     0.        0.       -0.65025 
 H                    -0.05409  -0.97555  -1.59417 
 H                     0.54591  -0.97555  -1.59417 
 O                     0.        0.        0.48769 
 
 Add virtual bond connecting atoms H2         and C1         Dist= 2.57D+00.
 Add virtual bond connecting atoms H3         and C1         Dist= 2.76D+00.
 --------
 ts guess
 --------
 Symbolic Z-matrix:
 Charge =  0 Multiplicity = 1
 C                    -0.45248   0.10638   0. 
 H                    -1.5186    0.19745   0. 
 H                    -2.11337  -0.53045   0. 
 O                     0.78829  -0.10353   0. 
 

 GradGradGradGradGradGradGradGradGradGradGradGradGradGradGradGradGradGrad
 Berny optimization.
 Initialization pass.
                           ----------------------------
                           !    Initial Parameters    !
                           ! (Angstroms and Degrees)  !
 --------------------------                            --------------------------
 ! Name  Definition        TS        Reactant  Product Derivative Info.         !
 --------------------------------------------------------------------------------
 ! R1    R(1,2)             1.07      1.1105    1.3585 estimate D2E/DX2         !
 ! R2    R(1,3)             1.7788    1.1105    1.4631 estimate D2E/DX2         !
 ! R3    R(1,4)             1.2584    1.2066    1.1379 estimate D2E/DX2         !
 ! R4    R(2,3)             0.94      1.8758    0.6    estimate D2E/DX2         !
 ! A1    A(2,1,3)          25.8607  115.2439   24.1896 estimate D2E/DX2         !
 ! A2    A(2,1,4)         175.28    122.378   134.0121 estimate D2E/DX2         !
 ! A3    A(3,1,4)         149.4193  122.378   130.1766 estimate D2E/DX2         !
 ! D1    D(2,1,3,4)       180.0     180.0    -109.8506 estimate D2E/DX2         !
 ! D2    D(2,1,4,3)         0.0     180.0      32.4044 estimate D2E/DX2         !
 --------------------------------------------------------------------------------
 Trust Radius=3.00D-01 FncErr=1.00D-07 GrdErr=1.00D-06
 Number of steps in this run=     20 maximum allowed number of steps=    100.
 Search for a saddle point of order  1.
 GradGradGradGradGradGradGradGradGradGradGradGradGradGradGradGradGradGrad

                          Input orientation:                          
 ---------------------------------------------------------------------
 Center     Atomic      Atomic             Coordinates (Angstroms)
 Number     Number       Type             X           Y           Z
 ---------------------------------------------------------------------
      1          6           0       -0.452482    0.106384    0.000000
      2          1           0       -1.518600    0.197451    0.000000
      3          1           0       -2.113372   -0.530454    0.000000
      4          8           0        0.788287   -0.103528    0.000000
 ---------------------------------------------------------------------
                    Distance matrix (angstroms):
                    1          2          3          4
     1  C    0.000000
     2  H    1.070000   0.000000
     3  H    1.778797   0.940000   0.000000
     4  O    1.258400   2.326438   2.932898   0.000000
 Stoichiometry    CH2O
 Framework group  CS[SG(CH2O)]
 Deg. of freedom     5
 Full point group                 CS      NOp   2
 Largest Abelian subgroup         CS      NOp   2
 Largest concise Abelian subgroup C1      NOp   1
                         Standard orientation:                         
 ---------------------------------------------------------------------
 Center     Atomic      Atomic             Coordinates (Angstroms)
 Number     Number       Type             X           Y           Z
 ---------------------------------------------------------------------
      1          6           0        0.062063    0.466840    0.000000
      2          1           0       -0.025983    1.533211    0.000000
      3          1           0       -0.842903    1.998230    0.000000
      4          8           0        0.062063   -0.791560    0.000000
 ---------------------------------------------------------------------
 Rotational constants (GHZ):    900.2728650     26.7952423     26.0207738
 Standard basis: 6-31G(d) (6D, 7F)
 There are    26 symmetry adapted cartesian basis functions of A'  symmetry.
 There are     8 symmetry adapted cartesian basis functions of A"  symmetry.
 There are    26 symmetry adapted basis functions of A'  symmetry.
 There are     8 symmetry adapted basis functions of A"  symmetry.
    34 basis functions,    64 primitive gaussians,    34 cartesian basis functions
     8 alpha electrons        8 beta electrons
       nuclear repulsion energy        28.7631405590 Hartrees.
 NAtoms=    4 NActive=    4 NUniq=    4 SFac= 1.00D+00 NAtFMM=   60 NAOKFM=F Big=F
 Integral buffers will be    131072 words long.
 Raffenetti 2 integral format.
 Two-electron integral symmetry is turned on.
 One-electron integrals computed using PRISM.
 NBasis=    34 RedAO= T EigKep=  7.69D-03  NBF=    26     8
 NBsUse=    34 1.00D-06 EigRej= -1.00D+00 NBFU=    26     8
 ExpMin= 1.61D-01 ExpMax= 5.48D+03 ExpMxC= 8.25D+02 IAcc=1 IRadAn=         1 AccDes= 0.00D+00
 Harris functional with IExCor=  402 and IRadAn=       1 diagonalized for initial guess.
 HarFok:  IExCor=  402 AccDes= 0.00D+00 IRadAn=         1 IDoV= 1 UseB2=F ITyADJ=14
 ICtDFT=  3500011 ScaDFX=  1.000000  1.000000  1.000000  1.000000
 FoFCou: FMM=F IPFlag=           0 FMFlag=      100000 FMFlg1=           0
         NFxFlg=           0 DoJE=T BraDBF=F KetDBF=T FulRan=T
         wScrn=  0.000000 ICntrl=     500 IOpCl=  0 I1Cent=   200000004 NGrid=           0
         NMat0=    1 NMatS0=      1 NMatT0=    0 NMatD0=    1 NMtDS0=    0 NMtDT0=    0
 Petite list used in FoFCou.
 Initial guess orbital symmetries:
       Occupied  (A') (A') (A') (A') (A') (A') (A") (A')
       Virtual   (A") (A') (A') (A') (A") (A') (A') (A') (A') (A')
                 (A") (A') (A') (A") (A') (A") (A') (A') (A") (A')
                 (A') (A") (A') (A') (A') (A')
 The electronic state of the initial guess is 1-A'.
 Keep R1 ints in memory in symmetry-blocked form, NReq=1061604.
 Requested convergence on RMS density matrix=1.00D-08 within 128 cycles.
 Requested convergence on MAX density matrix=1.00D-06.
 Requested convergence on             energy=1.00D-06.
 No special actions if energy rises.
 Integral accuracy reduced to 1.0D-05 until final iterations.
 Initial convergence to 1.0D-05 achieved.  Increase integral accuracy.
 SCF Done:  E(RB3LYP) =  -114.307118613     A.U. after   14 cycles
            NFock= 14  Conv=0.28D-08     -V/T= 2.0091

 **********************************************************************

            Population analysis using the SCF density.

 **********************************************************************

 Orbital symmetries:
       Occupied  (A') (A') (A') (A') (A') (A") (A') (A')
       Virtual   (A") (A') (A') (A') (A") (A') (A') (A') (A') (A')
                 (A") (A') (A') (A") (A') (A") (A') (A') (A") (A')
                 (A') (A") (A') (A') (A') (A')
 The electronic state is 1-A'.
 Alpha  occ. eigenvalues --  -19.27633 -10.35943  -1.10905  -0.70284  -0.54339
 Alpha  occ. eigenvalues --   -0.44930  -0.44751  -0.22442
 Alpha virt. eigenvalues --   -0.10479  -0.08570   0.10950   0.26398   0.48028
 Alpha virt. eigenvalues --    0.51477   0.56009   0.67033   0.73824   0.84073
 Alpha virt. eigenvalues --    0.89716   0.92487   1.04207   1.41856   1.43268
 Alpha virt. eigenvalues --    1.49384   1.49666   1.53503   1.86349   1.86484
 Alpha virt. eigenvalues --    2.40088   2.41668   2.45657   2.83852   3.81353
 Alpha virt. eigenvalues --    4.06712
          Condensed to atoms (all electrons):
               1          2          3          4
     1  C    5.415902   0.162420  -0.242879   0.410366
     2  H    0.162420   0.361084   0.172271  -0.012712
     3  H   -0.242879   0.172271   1.344251   0.011094
     4  O    0.410366  -0.012712   0.011094   7.877640
 Mulliken charges:
               1
     1  C    0.254190
     2  H    0.316937
     3  H   -0.284738
     4  O   -0.286389
 Sum of Mulliken charges =   0.00000
 Mulliken charges with hydrogens summed into heavy atoms:
               1
     1  C    0.286389
     4  O   -0.286389
 Electronic spatial extent (au):  <R**2>=             79.7338
 Charge=              0.0000 electrons
 Dipole moment (field-independent basis, Debye):
    X=              0.6719    Y=             -0.3081    Z=              0.0000  Tot=              0.7391
 Quadrupole moment (field-independent basis, Debye-Ang):
   XX=            -14.1734   YY=            -16.7013   ZZ=            -11.8681
   XY=              2.5088   XZ=              0.0000   YZ=              0.0000
 Traceless Quadrupole moment (field-independent basis, Debye-Ang):
   XX=              0.0742   YY=             -2.4537   ZZ=              2.3795
   XY=              2.5088   XZ=              0.0000   YZ=              0.0000
 Octapole moment (field-independent basis, Debye-Ang**2):
  XXX=              3.1688  YYY=            -17.0561  ZZZ=              0.0000  XYY=              7.2125
  XXY=             -5.7106  XXZ=              0.0000  XZZ=              0.6437  YZZ=             -2.3314
  YYZ=              0.0000  XYZ=              0.0000
 Hexadecapole moment (field-independent basis, Debye-Ang**3):
 XXXX=            -20.5973 YYYY=           -108.2303 ZZZZ=             -9.7432 XXXY=             11.4944
 XXXZ=              0.0000 YYYX=             22.4928 YYYZ=              0.0000 ZZZX=              0.0000
 ZZZY=              0.0000 XXYY=            -23.5844 XXZZ=             -4.8821 YYZZ=            -15.6599
 XXYZ=              0.0000 YYXZ=              0.0000 ZZXY=              3.0091
 N-N= 2.876314055899D+01 E-N=-3.247267499397D+02  KE= 1.132706991506D+02
 Symmetry A'   KE= 1.093540346965D+02
 Symmetry A"   KE= 3.916664454163D+00
 Calling FoFJK, ICntrl=      2127 FMM=F ISym2X=1 I1Cent= 0 IOpClX= 0 NMat=1 NMatS=1 NMatT=0.
 ***** Axes restored to original set *****
 -------------------------------------------------------------------
 Center     Atomic                   Forces (Hartrees/Bohr)
 Number     Number              X              Y              Z
 -------------------------------------------------------------------
      1        6           0.277790011    0.078734380    0.000000000
      2        1          -0.074072835   -0.012491556    0.000000000
      3        1          -0.039944049   -0.042024443    0.000000000
      4        8          -0.163773127   -0.024218382    0.000000000
 -------------------------------------------------------------------
 Cartesian Forces:  Max     0.277790011 RMS     0.099907860

 GradGradGradGradGradGradGradGradGradGradGradGradGradGradGradGradGradGrad
 Berny optimization.
 FormGI is forming the generalized inverse of G from B-inverse, IUseBI=4.
 Internal  Forces:  Max     0.157438925 RMS     0.066959984
 Search for a saddle point.
 Step number   1 out of a maximum of   20
 All quantities printed in internal units (Hartrees-Bohrs-Radians)
 Second derivative matrix not updated -- first step.
 The second derivative matrix:
                          R1        R2        R3        R4        A1
           R1           0.37230
           R2           0.00000   0.06362
           R3           0.00000   0.00000   0.80209
           R4           0.00000   0.00000   0.00000   0.21027
           A1           0.00000   0.00000   0.00000   0.00000   0.16000
           A2           0.00000   0.00000   0.00000   0.00000   0.00000
           A3           0.00000   0.00000   0.00000   0.00000   0.00000
           D1           0.00000   0.00000   0.00000   0.00000   0.00000
           D2           0.00000   0.00000   0.00000   0.00000   0.00000
                          A2        A3        D1        D2
           A2           0.16000
           A3           0.00000   0.16000
           D1           0.00000   0.00000   0.00230
           D2           0.00000   0.00000   0.00000   0.03565
 ITU=  0
 LST/QST climbing along tangent vector
     Eigenvalues ---    0.04322   0.09536   0.16994   0.21337   0.32150
     Eigenvalues ---    0.787861000.000001000.000001000.00000
 Eigenvectors required to have negative eigenvalues:
                          D2        R2        D1        R4        A3
   1                    0.93922   0.19919   0.17718   0.17272   0.09421
                          A2        R1        A1        R3
   1                    0.08477  -0.02758  -0.00944   0.00687
 QST in optimization variable space.
 Eigenvectors 1 and   4 swapped, overlap=  1.0000
                        Tangent   TS vect  // Eig F  Eigenval
   1         R1         0.36507  -0.36507  -0.07151   0.21337
   2         R2        -0.26636   0.26636   0.03003   0.09536
   3         R3        -0.15544   0.15544  -0.03764   0.16994
   4         R4        -0.69311   0.69311  -0.00189   0.04322
   5         A1        -0.15327   0.15327   0.03352   0.32150
   6         A2        -0.38826   0.38826  -0.07324   0.78786
   7         A3        -0.23500   0.23500   0.000001000.00000
   8         D1         0.04607  -0.04607   0.000001000.00000
   9         D2         0.24419  -0.24419   0.000001000.00000
 RFO step:  Lambda0=2.351166932D-01 Lambda=-2.46905345D-02.
 Linear search not attempted -- option 19 set.
 Maximum step size (   0.300) exceeded in Quadratic search.
    -- Step size scaled by   0.094
 Iteration  1 RMS(Cart)=  0.00633737 RMS(Int)=  0.09377947
 Iteration  2 RMS(Cart)=  0.00193464 RMS(Int)=  0.09072061
 Iteration  3 RMS(Cart)=  0.00179619 RMS(Int)=  0.08787415
 Iteration  4 RMS(Cart)=  0.00166178 RMS(Int)=  0.08524135
 Iteration  5 RMS(Cart)=  0.00154362 RMS(Int)=  0.08279638
 Iteration  6 RMS(Cart)=  0.00143900 RMS(Int)=  0.08051769
 Iteration  7 RMS(Cart)=  0.00134580 RMS(Int)=  0.07838712
 Iteration  8 RMS(Cart)=  0.00126230 RMS(Int)=  0.07638924
 Iteration  9 RMS(Cart)=  0.00118712 RMS(Int)=  0.07451081
 Iteration 10 RMS(Cart)=  0.00111912 RMS(Int)=  0.07274043
 Iteration 11 RMS(Cart)=  0.00105735 RMS(Int)=  0.07106817
 Iteration 12 RMS(Cart)=  0.00100104 RMS(Int)=  0.06948536
 Iteration 13 RMS(Cart)=  0.00094952 RMS(Int)=  0.06798439
 Iteration 14 RMS(Cart)=  0.00090224 RMS(Int)=  0.06655853
 Iteration 15 RMS(Cart)=  0.00085870 RMS(Int)=  0.06520181
 Iteration 16 RMS(Cart)=  0.00081851 RMS(Int)=  0.06390891
 Iteration 17 RMS(Cart)=  0.00078131 RMS(Int)=  0.06267508
 Iteration 18 RMS(Cart)=  0.00074680 RMS(Int)=  0.06149606
 Iteration 19 RMS(Cart)=  0.00071471 RMS(Int)=  0.06036798
 Iteration 20 RMS(Cart)=  0.00068481 RMS(Int)=  0.05928738
 Iteration 21 RMS(Cart)=  0.00065689 RMS(Int)=  0.05825111
 Iteration 22 RMS(Cart)=  0.00063077 RMS(Int)=  0.05725630
 Iteration 23 RMS(Cart)=  0.00060629 RMS(Int)=  0.05630033
 Iteration 24 RMS(Cart)=  0.00058332 RMS(Int)=  0.05538083
 Iteration 25 RMS(Cart)=  0.00056172 RMS(Int)=  0.05449560
 Iteration 26 RMS(Cart)=  0.00054139 RMS(Int)=  0.05364265
 Iteration 27 RMS(Cart)=  0.00052221 RMS(Int)=  0.05282012
 Iteration 28 RMS(Cart)=  0.00050411 RMS(Int)=  0.05202632
 Iteration 29 RMS(Cart)=  0.00048700 RMS(Int)=  0.05125967
 Iteration 30 RMS(Cart)=  0.00047080 RMS(Int)=  0.05051873
 Iteration 31 RMS(Cart)=  0.00045545 RMS(Int)=  0.04980214
 Iteration 32 RMS(Cart)=  0.00044088 RMS(Int)=  0.04910865
 Iteration 33 RMS(Cart)=  0.00042705 RMS(Int)=  0.04843711
 Iteration 34 RMS(Cart)=  0.00041390 RMS(Int)=  0.04778642
 Iteration 35 RMS(Cart)=  0.00040139 RMS(Int)=  0.04715558
 Iteration 36 RMS(Cart)=  0.00038947 RMS(Int)=  0.04654365
 Iteration 37 RMS(Cart)=  0.00037810 RMS(Int)=  0.04594974
 Iteration 38 RMS(Cart)=  0.00036725 RMS(Int)=  0.04537303
 Iteration 39 RMS(Cart)=  0.00035690 RMS(Int)=  0.04481275
 Iteration 40 RMS(Cart)=  0.00034700 RMS(Int)=  0.04426816
 Iteration 41 RMS(Cart)=  0.00033753 RMS(Int)=  0.04373859
 Iteration 42 RMS(Cart)=  0.00032846 RMS(Int)=  0.04322339
 Iteration 43 RMS(Cart)=  0.00031978 RMS(Int)=  0.04272196
 Iteration 44 RMS(Cart)=  0.00031145 RMS(Int)=  0.04223372
 Iteration 45 RMS(Cart)=  0.00030346 RMS(Int)=  0.04175815
 Iteration 46 RMS(Cart)=  0.00029580 RMS(Int)=  0.04129473
 Iteration 47 RMS(Cart)=  0.00028843 RMS(Int)=  0.04084298
 Iteration 48 RMS(Cart)=  0.00028135 RMS(Int)=  0.04040245
 Iteration 49 RMS(Cart)=  0.00027455 RMS(Int)=  0.03997270
 Iteration 50 RMS(Cart)=  0.00026800 RMS(Int)=  0.03955334
 Iteration 51 RMS(Cart)=  0.00026169 RMS(Int)=  0.03914396
 Iteration 52 RMS(Cart)=  0.00025562 RMS(Int)=  0.03874422
 Iteration 53 RMS(Cart)=  0.00024976 RMS(Int)=  0.03835375
 Iteration 54 RMS(Cart)=  0.00024411 RMS(Int)=  0.03797222
 Iteration 55 RMS(Cart)=  0.00023867 RMS(Int)=  0.03759932
 Iteration 56 RMS(Cart)=  0.00023341 RMS(Int)=  0.03723476
 Iteration 57 RMS(Cart)=  0.00022833 RMS(Int)=  0.03687823
 Iteration 58 RMS(Cart)=  0.00022342 RMS(Int)=  0.03652948
 Iteration 59 RMS(Cart)=  0.00021868 RMS(Int)=  0.03618824
 Iteration 60 RMS(Cart)=  0.00021410 RMS(Int)=  0.03585426
 Iteration 61 RMS(Cart)=  0.00020966 RMS(Int)=  0.03552730
 Iteration 62 RMS(Cart)=  0.00020537 RMS(Int)=  0.03520715
 Iteration 63 RMS(Cart)=  0.00020121 RMS(Int)=  0.03489357
 Iteration 64 RMS(Cart)=  0.00019718 RMS(Int)=  0.03458637
 Iteration 65 RMS(Cart)=  0.00019328 RMS(Int)=  0.03428534
 Iteration 66 RMS(Cart)=  0.00018950 RMS(Int)=  0.03399030
 Iteration 67 RMS(Cart)=  0.00018583 RMS(Int)=  0.03370107
 Iteration 68 RMS(Cart)=  0.00018228 RMS(Int)=  0.03341746
 Iteration 69 RMS(Cart)=  0.00017883 RMS(Int)=  0.03313932
 Iteration 70 RMS(Cart)=  0.00017548 RMS(Int)=  0.03286648
 Iteration 71 RMS(Cart)=  0.00017222 RMS(Int)=  0.03259878
 Iteration 72 RMS(Cart)=  0.00016906 RMS(Int)=  0.03233608
 Iteration 73 RMS(Cart)=  0.00016599 RMS(Int)=  0.03207824
 Iteration 74 RMS(Cart)=  0.00016301 RMS(Int)=  0.03182512
 Iteration 75 RMS(Cart)=  0.00016011 RMS(Int)=  0.03157659
 Iteration 76 RMS(Cart)=  0.00015729 RMS(Int)=  0.03133252
 Iteration 77 RMS(Cart)=  0.00015455 RMS(Int)=  0.03109279
 Iteration 78 RMS(Cart)=  0.00015188 RMS(Int)=  0.03085728
 Iteration 79 RMS(Cart)=  0.00014928 RMS(Int)=  0.03062588
 Iteration 80 RMS(Cart)=  0.00014675 RMS(Int)=  0.03039848
 Iteration 81 RMS(Cart)=  0.00014428 RMS(Int)=  0.03017498
 Iteration 82 RMS(Cart)=  0.00014188 RMS(Int)=  0.02995527
 Iteration 83 RMS(Cart)=  0.00013954 RMS(Int)=  0.02973926
 Iteration 84 RMS(Cart)=  0.00013726 RMS(Int)=  0.02952685
 Iteration 85 RMS(Cart)=  0.00013504 RMS(Int)=  0.02931795
 Iteration 86 RMS(Cart)=  0.00013288 RMS(Int)=  0.02911247
 Iteration 87 RMS(Cart)=  0.00013076 RMS(Int)=  0.02891033
 Iteration 88 RMS(Cart)=  0.00012870 RMS(Int)=  0.02871145
 Iteration 89 RMS(Cart)=  0.00012669 RMS(Int)=  0.02851575
 Iteration 90 RMS(Cart)=  0.00012473 RMS(Int)=  0.02832314
 Iteration 91 RMS(Cart)=  0.00012281 RMS(Int)=  0.02813356
 Iteration 92 RMS(Cart)=  0.00012094 RMS(Int)=  0.02794693
 Iteration 93 RMS(Cart)=  0.00011911 RMS(Int)=  0.02776319
 Iteration 94 RMS(Cart)=  0.00011733 RMS(Int)=  0.02758226
 Iteration 95 RMS(Cart)=  0.00011558 RMS(Int)=  0.02740409
 Iteration 96 RMS(Cart)=  0.00011388 RMS(Int)=  0.02722860
 Iteration 97 RMS(Cart)=  0.00011221 RMS(Int)=  0.02705575
 Iteration 98 RMS(Cart)=  0.00011058 RMS(Int)=  0.02688546
 Iteration 99 RMS(Cart)=  0.00010898 RMS(Int)=  0.02671769
 Iteration100 RMS(Cart)=  0.00010742 RMS(Int)=  0.02655237
 New curvilinear step not converged.
 ITry= 1 IFail=1 DXMaxC= 9.58D-02 DCOld= 1.00D+10 DXMaxT= 3.00D-01 DXLimC= 3.00D+00 Rises=F
 Iteration  1 RMS(Cart)=  0.00590210 RMS(Int)=  0.08393087
 Iteration  2 RMS(Cart)=  0.00162518 RMS(Int)=  0.08136122
 Iteration  3 RMS(Cart)=  0.00150276 RMS(Int)=  0.07898561
 Iteration  4 RMS(Cart)=  0.00139548 RMS(Int)=  0.07678004
 Iteration  5 RMS(Cart)=  0.00130075 RMS(Int)=  0.07472459
 Iteration  6 RMS(Cart)=  0.00121656 RMS(Int)=  0.07280254
 Iteration  7 RMS(Cart)=  0.00114129 RMS(Int)=  0.07099977
 Iteration  8 RMS(Cart)=  0.00107363 RMS(Int)=  0.06930420
 Iteration  9 RMS(Cart)=  0.00101251 RMS(Int)=  0.06770545
 Iteration 10 RMS(Cart)=  0.00095707 RMS(Int)=  0.06619454
 Iteration 11 RMS(Cart)=  0.00090657 RMS(Int)=  0.06476362
 Iteration 12 RMS(Cart)=  0.00086040 RMS(Int)=  0.06340583
 Iteration 13 RMS(Cart)=  0.00081805 RMS(Int)=  0.06211513
 Iteration 14 RMS(Cart)=  0.00077907 RMS(Int)=  0.06088614
 Iteration 15 RMS(Cart)=  0.00074311 RMS(Int)=  0.05971412
 Iteration 16 RMS(Cart)=  0.00070983 RMS(Int)=  0.05859480
 Iteration 17 RMS(Cart)=  0.00067895 RMS(Int)=  0.05752437
 Iteration 18 RMS(Cart)=  0.00065024 RMS(Int)=  0.05649940
 Iteration 19 RMS(Cart)=  0.00062349 RMS(Int)=  0.05551678
 Iteration 20 RMS(Cart)=  0.00059851 RMS(Int)=  0.05457372
 Iteration 21 RMS(Cart)=  0.00057514 RMS(Int)=  0.05366766
 Iteration 22 RMS(Cart)=  0.00055323 RMS(Int)=  0.05279628
 Iteration 23 RMS(Cart)=  0.00053266 RMS(Int)=  0.05195746
 Iteration 24 RMS(Cart)=  0.00051332 RMS(Int)=  0.05114926
 Iteration 25 RMS(Cart)=  0.00049510 RMS(Int)=  0.05036990
 Iteration 26 RMS(Cart)=  0.00047791 RMS(Int)=  0.04961774
 Iteration 27 RMS(Cart)=  0.00046168 RMS(Int)=  0.04889128
 Iteration 28 RMS(Cart)=  0.00044633 RMS(Int)=  0.04818911
 Iteration 29 RMS(Cart)=  0.00043179 RMS(Int)=  0.04750995
 Iteration 30 RMS(Cart)=  0.00041800 RMS(Int)=  0.04685261
 Iteration 31 RMS(Cart)=  0.00040492 RMS(Int)=  0.04621596
 Iteration 32 RMS(Cart)=  0.00039249 RMS(Int)=  0.04559900
 Iteration 33 RMS(Cart)=  0.00038066 RMS(Int)=  0.04500074
 Iteration 34 RMS(Cart)=  0.00036940 RMS(Int)=  0.04442030
 Iteration 35 RMS(Cart)=  0.00035867 RMS(Int)=  0.04385684
 Iteration 36 RMS(Cart)=  0.00034843 RMS(Int)=  0.04330958
 Iteration 37 RMS(Cart)=  0.00033866 RMS(Int)=  0.04277778
 Iteration 38 RMS(Cart)=  0.00032932 RMS(Int)=  0.04226076
 Iteration 39 RMS(Cart)=  0.00032039 RMS(Int)=  0.04175787
 Iteration 40 RMS(Cart)=  0.00031184 RMS(Int)=  0.04126850
 Iteration 41 RMS(Cart)=  0.00030365 RMS(Int)=  0.04079209
 Iteration 42 RMS(Cart)=  0.00029580 RMS(Int)=  0.04032809
 Iteration 43 RMS(Cart)=  0.00028827 RMS(Int)=  0.03987600
 Iteration 44 RMS(Cart)=  0.00028104 RMS(Int)=  0.03943534
 Iteration 45 RMS(Cart)=  0.00027410 RMS(Int)=  0.03900566
 Iteration 46 RMS(Cart)=  0.00026743 RMS(Int)=  0.03858653
 Iteration 47 RMS(Cart)=  0.00026101 RMS(Int)=  0.03817755
 Iteration 48 RMS(Cart)=  0.00025484 RMS(Int)=  0.03777833
 Iteration 49 RMS(Cart)=  0.00024890 RMS(Int)=  0.03738851
 Iteration 50 RMS(Cart)=  0.00024317 RMS(Int)=  0.03700774
 Iteration 51 RMS(Cart)=  0.00023765 RMS(Int)=  0.03663570
 Iteration 52 RMS(Cart)=  0.00023233 RMS(Int)=  0.03627207
 Iteration 53 RMS(Cart)=  0.00022720 RMS(Int)=  0.03591656
 Iteration 54 RMS(Cart)=  0.00022224 RMS(Int)=  0.03556889
 Iteration 55 RMS(Cart)=  0.00021745 RMS(Int)=  0.03522879
 Iteration 56 RMS(Cart)=  0.00021283 RMS(Int)=  0.03489600
 Iteration 57 RMS(Cart)=  0.00020835 RMS(Int)=  0.03457028
 Iteration 58 RMS(Cart)=  0.00020403 RMS(Int)=  0.03425140
 Iteration 59 RMS(Cart)=  0.00019985 RMS(Int)=  0.03393912
 Iteration 60 RMS(Cart)=  0.00019580 RMS(Int)=  0.03363325
 Iteration 61 RMS(Cart)=  0.00019188 RMS(Int)=  0.03333358
 Iteration 62 RMS(Cart)=  0.00018808 RMS(Int)=  0.03303991
 Iteration 63 RMS(Cart)=  0.00018440 RMS(Int)=  0.03275205
 Iteration 64 RMS(Cart)=  0.00018083 RMS(Int)=  0.03246984
 Iteration 65 RMS(Cart)=  0.00017737 RMS(Int)=  0.03219309
 Iteration 66 RMS(Cart)=  0.00017401 RMS(Int)=  0.03192165
 Iteration 67 RMS(Cart)=  0.00017076 RMS(Int)=  0.03165536
 Iteration 68 RMS(Cart)=  0.00016759 RMS(Int)=  0.03139406
 Iteration 69 RMS(Cart)=  0.00016452 RMS(Int)=  0.03113762
 Iteration 70 RMS(Cart)=  0.00016154 RMS(Int)=  0.03088589
 Iteration 71 RMS(Cart)=  0.00015864 RMS(Int)=  0.03063874
 Iteration 72 RMS(Cart)=  0.00015582 RMS(Int)=  0.03039605
 Iteration 73 RMS(Cart)=  0.00015308 RMS(Int)=  0.03015768
 Iteration 74 RMS(Cart)=  0.00015042 RMS(Int)=  0.02992352
 Iteration 75 RMS(Cart)=  0.00014783 RMS(Int)=  0.02969346
 Iteration 76 RMS(Cart)=  0.00014530 RMS(Int)=  0.02946738
 Iteration 77 RMS(Cart)=  0.00014285 RMS(Int)=  0.02924518
 Iteration 78 RMS(Cart)=  0.00014046 RMS(Int)=  0.02902676
 Iteration 79 RMS(Cart)=  0.00013813 RMS(Int)=  0.02881202
 Iteration 80 RMS(Cart)=  0.00013586 RMS(Int)=  0.02860086
 Iteration 81 RMS(Cart)=  0.00013365 RMS(Int)=  0.02839320
 Iteration 82 RMS(Cart)=  0.00013149 RMS(Int)=  0.02818894
 Iteration 83 RMS(Cart)=  0.00012939 RMS(Int)=  0.02798799
 Iteration 84 RMS(Cart)=  0.00012734 RMS(Int)=  0.02779029
 Iteration 85 RMS(Cart)=  0.00012534 RMS(Int)=  0.02759573
 Iteration 86 RMS(Cart)=  0.00012339 RMS(Int)=  0.02740426
 Iteration 87 RMS(Cart)=  0.00012149 RMS(Int)=  0.02721579
 Iteration 88 RMS(Cart)=  0.00011963 RMS(Int)=  0.02703026
 Iteration 89 RMS(Cart)=  0.00011782 RMS(Int)=  0.02684758
 Iteration 90 RMS(Cart)=  0.00011605 RMS(Int)=  0.02666771
 Iteration 91 RMS(Cart)=  0.00011432 RMS(Int)=  0.02649056
 Iteration 92 RMS(Cart)=  0.00011263 RMS(Int)=  0.02631608
 Iteration 93 RMS(Cart)=  0.00011098 RMS(Int)=  0.02614420
 Iteration 94 RMS(Cart)=  0.00010937 RMS(Int)=  0.02597487
 Iteration 95 RMS(Cart)=  0.00010779 RMS(Int)=  0.02580804
 Iteration 96 RMS(Cart)=  0.00010625 RMS(Int)=  0.02564363
 Iteration 97 RMS(Cart)=  0.00010474 RMS(Int)=  0.02548160
 Iteration 98 RMS(Cart)=  0.00010327 RMS(Int)=  0.02532190
 Iteration 99 RMS(Cart)=  0.00010183 RMS(Int)=  0.02516448
 Iteration100 RMS(Cart)=  0.00010042 RMS(Int)=  0.02500928
 New curvilinear step not converged.
 ITry= 2 IFail=1 DXMaxC= 8.46D-02 DCOld= 1.00D+10 DXMaxT= 3.00D-01 DXLimC= 3.00D+00 Rises=F
 Iteration  1 RMS(Cart)=  0.00525834 RMS(Int)=  0.07458814
 Iteration  2 RMS(Cart)=  0.00167366 RMS(Int)=  0.07194167
 Iteration  3 RMS(Cart)=  0.00152168 RMS(Int)=  0.06953615
 Iteration  4 RMS(Cart)=  0.00139156 RMS(Int)=  0.06733688
 Iteration  5 RMS(Cart)=  0.00127912 RMS(Int)=  0.06531580
 Iteration  6 RMS(Cart)=  0.00118113 RMS(Int)=  0.06344996
 Iteration  7 RMS(Cart)=  0.00109513 RMS(Int)=  0.06172037
 Iteration  8 RMS(Cart)=  0.00101913 RMS(Int)=  0.06011114
 Iteration  9 RMS(Cart)=  0.00095159 RMS(Int)=  0.05860888
 Iteration 10 RMS(Cart)=  0.00089123 RMS(Int)=  0.05720218
 Iteration 11 RMS(Cart)=  0.00083705 RMS(Int)=  0.05588126
 Iteration 12 RMS(Cart)=  0.00078815 RMS(Int)=  0.05463775
 Iteration 13 RMS(Cart)=  0.00074386 RMS(Int)=  0.05346435
 Iteration 14 RMS(Cart)=  0.00070358 RMS(Int)=  0.05235469
 Iteration 15 RMS(Cart)=  0.00066684 RMS(Int)=  0.05130318
 Iteration 16 RMS(Cart)=  0.00063320 RMS(Int)=  0.05030490
 Iteration 17 RMS(Cart)=  0.00060231 RMS(Int)=  0.04935549
 Iteration 18 RMS(Cart)=  0.00057386 RMS(Int)=  0.04845109
 Iteration 19 RMS(Cart)=  0.00054760 RMS(Int)=  0.04758823
 Iteration 20 RMS(Cart)=  0.00052329 RMS(Int)=  0.04676382
 Iteration 21 RMS(Cart)=  0.00050073 RMS(Int)=  0.04597509
 Iteration 22 RMS(Cart)=  0.00047976 RMS(Int)=  0.04521953
 Iteration 23 RMS(Cart)=  0.00046022 RMS(Int)=  0.04449487
 Iteration 24 RMS(Cart)=  0.00044197 RMS(Int)=  0.04379906
 Iteration 25 RMS(Cart)=  0.00042491 RMS(Int)=  0.04313024
 Iteration 26 RMS(Cart)=  0.00040892 RMS(Int)=  0.04248670
 Iteration 27 RMS(Cart)=  0.00039391 RMS(Int)=  0.04186690
 Iteration 28 RMS(Cart)=  0.00037980 RMS(Int)=  0.04126940
 Iteration 29 RMS(Cart)=  0.00036651 RMS(Int)=  0.04069290
 Iteration 30 RMS(Cart)=  0.00035398 RMS(Int)=  0.04013620
 Iteration 31 RMS(Cart)=  0.00034216 RMS(Int)=  0.03959820
 Iteration 32 RMS(Cart)=  0.00033098 RMS(Int)=  0.03907787
 Iteration 33 RMS(Cart)=  0.00032039 RMS(Int)=  0.03857427
 Iteration 34 RMS(Cart)=  0.00031036 RMS(Int)=  0.03808653
 Iteration 35 RMS(Cart)=  0.00030084 RMS(Int)=  0.03761383
 Iteration 36 RMS(Cart)=  0.00029180 RMS(Int)=  0.03715542
 Iteration 37 RMS(Cart)=  0.00028320 RMS(Int)=  0.03671059
 Iteration 38 RMS(Cart)=  0.00027502 RMS(Int)=  0.03627870
 Iteration 39 RMS(Cart)=  0.00026722 RMS(Int)=  0.03585913
 Iteration 40 RMS(Cart)=  0.00025978 RMS(Int)=  0.03545131
 Iteration 41 RMS(Cart)=  0.00025268 RMS(Int)=  0.03505471
 Iteration 42 RMS(Cart)=  0.00024590 RMS(Int)=  0.03466882
 Iteration 43 RMS(Cart)=  0.00023941 RMS(Int)=  0.03429318
 Iteration 44 RMS(Cart)=  0.00023321 RMS(Int)=  0.03392734
 Iteration 45 RMS(Cart)=  0.00022726 RMS(Int)=  0.03357089
 Iteration 46 RMS(Cart)=  0.00022157 RMS(Int)=  0.03322344
 Iteration 47 RMS(Cart)=  0.00021610 RMS(Int)=  0.03288462
 Iteration 48 RMS(Cart)=  0.00021086 RMS(Int)=  0.03255409
 Iteration 49 RMS(Cart)=  0.00020582 RMS(Int)=  0.03223151
 Iteration 50 RMS(Cart)=  0.00020098 RMS(Int)=  0.03191657
 Iteration 51 RMS(Cart)=  0.00019632 RMS(Int)=  0.03160899
 Iteration 52 RMS(Cart)=  0.00019184 RMS(Int)=  0.03130849
 Iteration 53 RMS(Cart)=  0.00018753 RMS(Int)=  0.03101480
 Iteration 54 RMS(Cart)=  0.00018337 RMS(Int)=  0.03072767
 Iteration 55 RMS(Cart)=  0.00017937 RMS(Int)=  0.03044687
 Iteration 56 RMS(Cart)=  0.00017550 RMS(Int)=  0.03017217
 Iteration 57 RMS(Cart)=  0.00017177 RMS(Int)=  0.02990335
 Iteration 58 RMS(Cart)=  0.00016817 RMS(Int)=  0.02964022
 Iteration 59 RMS(Cart)=  0.00016470 RMS(Int)=  0.02938259
 Iteration 60 RMS(Cart)=  0.00016134 RMS(Int)=  0.02913025
 Iteration 61 RMS(Cart)=  0.00015809 RMS(Int)=  0.02888305
 Iteration 62 RMS(Cart)=  0.00015494 RMS(Int)=  0.02864082
 Iteration 63 RMS(Cart)=  0.00015190 RMS(Int)=  0.02840338
 Iteration 64 RMS(Cart)=  0.00014895 RMS(Int)=  0.02817060
 Iteration 65 RMS(Cart)=  0.00014610 RMS(Int)=  0.02794232
 Iteration 66 RMS(Cart)=  0.00014334 RMS(Int)=  0.02771840
 Iteration 67 RMS(Cart)=  0.00014066 RMS(Int)=  0.02749871
 Iteration 68 RMS(Cart)=  0.00013806 RMS(Int)=  0.02728313
 Iteration 69 RMS(Cart)=  0.00013554 RMS(Int)=  0.02707152
 Iteration 70 RMS(Cart)=  0.00013309 RMS(Int)=  0.02686378
 Iteration 71 RMS(Cart)=  0.00013071 RMS(Int)=  0.02665979
 Iteration 72 RMS(Cart)=  0.00012841 RMS(Int)=  0.02645943
 Iteration 73 RMS(Cart)=  0.00012617 RMS(Int)=  0.02626262
 Iteration 74 RMS(Cart)=  0.00012399 RMS(Int)=  0.02606924
 Iteration 75 RMS(Cart)=  0.00012187 RMS(Int)=  0.02587920
 Iteration 76 RMS(Cart)=  0.00011981 RMS(Int)=  0.02569242
 Iteration 77 RMS(Cart)=  0.00011781 RMS(Int)=  0.02550879
 Iteration 78 RMS(Cart)=  0.00011586 RMS(Int)=  0.02532824
 Iteration 79 RMS(Cart)=  0.00011396 RMS(Int)=  0.02515069
 Iteration 80 RMS(Cart)=  0.00011211 RMS(Int)=  0.02497605
 Iteration 81 RMS(Cart)=  0.00011032 RMS(Int)=  0.02480425
 Iteration 82 RMS(Cart)=  0.00010856 RMS(Int)=  0.02463521
 Iteration 83 RMS(Cart)=  0.00010685 RMS(Int)=  0.02446887
 Iteration 84 RMS(Cart)=  0.00010519 RMS(Int)=  0.02430515
 Iteration 85 RMS(Cart)=  0.00010357 RMS(Int)=  0.02414400
 Iteration 86 RMS(Cart)=  0.00010198 RMS(Int)=  0.02398534
 Iteration 87 RMS(Cart)=  0.00010044 RMS(Int)=  0.02382912
 Iteration 88 RMS(Cart)=  0.00009893 RMS(Int)=  0.02367528
 Iteration 89 RMS(Cart)=  0.00009746 RMS(Int)=  0.02352375
 Iteration 90 RMS(Cart)=  0.00009603 RMS(Int)=  0.02337449
 Iteration 91 RMS(Cart)=  0.00009463 RMS(Int)=  0.02322744
 Iteration 92 RMS(Cart)=  0.00009326 RMS(Int)=  0.02308255
 Iteration 93 RMS(Cart)=  0.00009192 RMS(Int)=  0.02293977
 Iteration 94 RMS(Cart)=  0.00009061 RMS(Int)=  0.02279905
 Iteration 95 RMS(Cart)=  0.00008934 RMS(Int)=  0.02266034
 Iteration 96 RMS(Cart)=  0.00008809 RMS(Int)=  0.02252360
 Iteration 97 RMS(Cart)=  0.00008687 RMS(Int)=  0.02238879
 Iteration 98 RMS(Cart)=  0.00008568 RMS(Int)=  0.02225585
 Iteration 99 RMS(Cart)=  0.00008451 RMS(Int)=  0.02212476
 Iteration100 RMS(Cart)=  0.00008337 RMS(Int)=  0.02199547
 New curvilinear step not converged.
 ITry= 3 IFail=1 DXMaxC= 7.54D-02 DCOld= 1.00D+10 DXMaxT= 3.00D-01 DXLimC= 3.00D+00 Rises=F
 Iteration  1 RMS(Cart)=  0.00831451 RMS(Int)=  0.05926943
 Iteration  2 RMS(Cart)=  0.00898689 RMS(Int)=  0.04487446
 Iteration  3 RMS(Cart)=  0.01072872 RMS(Int)=  0.02773615
 Iteration  4 RMS(Cart)=  0.01330516 RMS(Int)=  0.00828929
 Iteration  5 RMS(Cart)=  0.00362525 RMS(Int)=  0.00361298
 Iteration  6 RMS(Cart)=  0.00087319 RMS(Int)=  0.00323613
 Iteration  7 RMS(Cart)=  0.00003924 RMS(Int)=  0.00323414
 Iteration  8 RMS(Cart)=  0.00000111 RMS(Int)=  0.00323414
 Iteration  9 RMS(Cart)=  0.00000000 RMS(Int)=  0.00323414
 ITry= 4 IFail=0 DXMaxC= 8.95D-02 DCOld= 1.00D+10 DXMaxT= 3.00D-01 DXLimC= 3.00D+00 Rises=F
 ClnCor:  largest displacement from symmetrization is 3.31D-04 for atom     1.
 Variable       Old X    -DE/DX   Delta X   Delta X   Delta X     New X
                                 (Linear)    (Quad)   (Total)
    R1        2.02201   0.07704   0.00000  -0.10395  -0.07291   1.94909
    R2        3.36144   0.04573   0.00000   0.10289   0.07226   3.43370
    R3        2.37803  -0.15744   0.00000   0.03940   0.02758   2.40561
    R4        1.77634   0.00761   0.00000   0.22367   0.15630   1.93264
    A1        0.45135   0.00683   0.00000   0.04534   0.03162   0.48298
    A2        3.05921  -0.05746   0.00000   0.10596   0.07353   3.13274
    A3        2.60786  -0.06429   0.00000   0.06062   0.04191   2.64977
    D1        3.14159   0.00000   0.00000  -0.01535   0.00000   3.14159
    D2        0.00000   0.00000   0.00000  -0.08137   0.00000   0.00000
         Item               Value     Threshold  Converged?
 Maximum Force            0.157439     0.000450     NO 
 RMS     Force            0.066960     0.000300     NO 
 Maximum Displacement     0.089485     0.001800     NO 
 RMS     Displacement     0.045849     0.001200     NO 
 Predicted change in Energy= 1.684994D-02
 GradGradGradGradGradGradGradGradGradGradGradGradGradGradGradGradGradGrad

                          Input orientation:                          
 ---------------------------------------------------------------------
 Center     Atomic      Atomic             Coordinates (Angstroms)
 Number     Number       Type             X           Y           Z
 ---------------------------------------------------------------------
      1          6           0       -0.457872    0.086371    0.000000
      2          1           0       -1.481035    0.216579    0.000000
      3          1           0       -2.160725   -0.547593    0.000000
      4          8           0        0.803466   -0.085505    0.000000
 ---------------------------------------------------------------------
                    Distance matrix (angstroms):
                    1          2          3          4
     1  C    0.000000
     2  H    1.031415   0.000000
     3  H    1.817035   1.022711   0.000000
     4  O    1.272995   2.304387   2.999992   0.000000
 Stoichiometry    CH2O
 Framework group  CS[SG(CH2O)]
 Deg. of freedom     5
 Full point group                 CS      NOp   2
 Largest Abelian subgroup         CS      NOp   2
 Largest concise Abelian subgroup C1      NOp   1
                         Standard orientation:                         
 ---------------------------------------------------------------------
 Center     Atomic      Atomic             Coordinates (Angstroms)
 Number     Number       Type             X           Y           Z
 ---------------------------------------------------------------------
      1          6           0        0.054200    0.471932    0.000000
      2          1           0        0.045072    1.503307    0.000000
      3          1           0       -0.803872    2.073597    0.000000
      4          8           0        0.054200   -0.801062    0.000000
 ---------------------------------------------------------------------
 Rotational constants (GHZ):    970.8081050     26.1514999     25.4655133
 Standard basis: 6-31G(d) (6D, 7F)
 There are    26 symmetry adapted cartesian basis functions of A'  symmetry.
 There are     8 symmetry adapted cartesian basis functions of A"  symmetry.
 There are    26 symmetry adapted basis functions of A'  symmetry.
 There are     8 symmetry adapted basis functions of A"  symmetry.
    34 basis functions,    64 primitive gaussians,    34 cartesian basis functions
     8 alpha electrons        8 beta electrons
       nuclear repulsion energy        28.5447717310 Hartrees.
 NAtoms=    4 NActive=    4 NUniq=    4 SFac= 1.00D+00 NAtFMM=   60 NAOKFM=F Big=F
 Integral buffers will be    131072 words long.
 Raffenetti 2 integral format.
 Two-electron integral symmetry is turned on.
 One-electron integrals computed using PRISM.
 NBasis=    34 RedAO= T EigKep=  7.85D-03  NBF=    26     8
 NBsUse=    34 1.00D-06 EigRej= -1.00D+00 NBFU=    26     8
 Initial guess from the checkpoint file:  "C:\Work\Gau-15508.chk"
 B after Tr=     0.000000    0.000000    0.000000
         Rot=    0.999947    0.000000    0.000000    0.010328 Ang=   1.18 deg.
 Initial guess orbital symmetries:
       Occupied  (A') (A') (A') (A') (A') (A") (A') (A')
       Virtual   (A') (A') (A') (A') (A') (A') (A') (A') (A') (A')
                 (A') (A') (A') (A') (A') (A') (A') (A') (A') (A")
                 (A") (A") (A") (A") (A") (A")
 ExpMin= 1.61D-01 ExpMax= 5.48D+03 ExpMxC= 8.25D+02 IAcc=1 IRadAn=         1 AccDes= 0.00D+00
 Harris functional with IExCor=  402 and IRadAn=       1 diagonalized for initial guess.
 HarFok:  IExCor=  402 AccDes= 0.00D+00 IRadAn=         1 IDoV= 1 UseB2=F ITyADJ=14
 ICtDFT=  3500011 ScaDFX=  1.000000  1.000000  1.000000  1.000000
 FoFCou: FMM=F IPFlag=           0 FMFlag=      100000 FMFlg1=           0
         NFxFlg=           0 DoJE=T BraDBF=F KetDBF=T FulRan=T
         wScrn=  0.000000 ICntrl=     500 IOpCl=  0 I1Cent=   200000004 NGrid=           0
         NMat0=    1 NMatS0=      1 NMatT0=    0 NMatD0=    1 NMtDS0=    0 NMtDT0=    0
 Petite list used in FoFCou.
 Keep R1 ints in memory in symmetry-blocked form, NReq=1061604.
 Requested convergence on RMS density matrix=1.00D-08 within 128 cycles.
 Requested convergence on MAX density matrix=1.00D-06.
 Requested convergence on             energy=1.00D-06.
 No special actions if energy rises.
 Integral accuracy reduced to 1.0D-05 until final iterations.
 EnCoef did     2 forward-backward iterations
 Initial convergence to 1.0D-05 achieved.  Increase integral accuracy.
 SCF Done:  E(RB3LYP) =  -114.294609370     A.U. after   14 cycles
            NFock= 14  Conv=0.43D-08     -V/T= 2.0098
 Calling FoFJK, ICntrl=      2127 FMM=F ISym2X=1 I1Cent= 0 IOpClX= 0 NMat=1 NMatS=1 NMatT=0.
 ***** Axes restored to original set *****
 -------------------------------------------------------------------
 Center     Atomic                   Forces (Hartrees/Bohr)
 Number     Number              X              Y              Z
 -------------------------------------------------------------------
      1        6           0.279086280    0.062410194    0.000000000
      2        1          -0.079421396    0.003766090    0.000000000
      3        1          -0.026386644   -0.041661616    0.000000000
      4        8          -0.173278240   -0.024514668    0.000000000
 -------------------------------------------------------------------
 Cartesian Forces:  Max     0.279086280 RMS     0.100483991

 GradGradGradGradGradGradGradGradGradGradGradGradGradGradGradGradGradGrad
 Berny optimization.
 FormGI is forming the generalized inverse of G from B-inverse, IUseBI=4.
 Internal  Forces:  Max     0.168381708 RMS     0.069704862
 Search for a saddle point.
 Step number   2 out of a maximum of   20
 All quantities printed in internal units (Hartrees-Bohrs-Radians)
 Update second derivatives using D2CorX and points    1    2
 The second derivative matrix:
                          R1        R2        R3        R4        A1
           R1           0.33075
           R2          -0.01898   0.07496
           R3           0.02357   0.00815   0.78906
           R4           0.07686   0.03917  -0.04412   0.06893
           A1           0.03660   0.01054  -0.01995  -0.06894   0.12968
           A2           0.04614   0.01967  -0.02598  -0.08563  -0.04020
           A3           0.00954   0.00913  -0.00604  -0.01669  -0.00988
           D1           0.00000   0.00000   0.00000   0.00000   0.00000
           D2           0.00000   0.00000   0.00000   0.00000   0.00000
                          A2        A3        D1        D2
           A2           0.10887
           A3          -0.01093   0.15894
           D1           0.00000   0.00000   0.00230
           D2           0.00000   0.00000   0.00000   0.03565
 ITU=  0  0
 LST/QST climbing along tangent vector
     Eigenvalues ---    0.00269   0.03412   0.05531   0.16654   0.32031
     Eigenvalues ---    0.787291000.000001000.000001000.00000
 Eigenvectors required to have negative eigenvalues:
                          R4        A2        R1        R2        A3
   1                    0.72813   0.39208  -0.37225   0.26979   0.21832
                          A1        R3        D2        D1
   1                    0.17377   0.15452  -0.05482  -0.00104
 QST in optimization variable space.
                        Tangent   TS vect  // Eig F  Eigenval
   1         R1         0.37225  -0.37225  -0.07210   0.00269
   2         R2        -0.26979   0.26979  -0.00482   0.03412
   3         R3        -0.15452   0.15452   0.01414   0.05531
   4         R4        -0.72813   0.72813  -0.04077   0.16654
   5         A1        -0.17377   0.17377   0.03949   0.32031
   6         A2        -0.39208   0.39208  -0.07867   0.78729
   7         A3        -0.21832   0.21832   0.000001000.00000
   8         D1         0.00104  -0.00104   0.000001000.00000
   9         D2         0.05482  -0.05482   0.000001000.00000
 RFO step:  Lambda0=7.346061337D-02 Lambda=-2.38164824D-02.
 Linear search not attempted -- option 19 set.
 Maximum step size (   0.300) exceeded in Quadratic search.
    -- Step size scaled by   0.281
 Iteration  1 RMS(Cart)=  0.00571322 RMS(Int)=  0.09113104
 Iteration  2 RMS(Cart)=  0.00009454 RMS(Int)=  0.09097970
 Iteration  3 RMS(Cart)=  0.00009440 RMS(Int)=  0.09082855
 Iteration  4 RMS(Cart)=  0.00009428 RMS(Int)=  0.09067754
 Iteration  5 RMS(Cart)=  0.00009415 RMS(Int)=  0.09052670
 Iteration  6 RMS(Cart)=  0.00009403 RMS(Int)=  0.09037601
 Iteration  7 RMS(Cart)=  0.00009391 RMS(Int)=  0.09022548
 Iteration  8 RMS(Cart)=  0.00009379 RMS(Int)=  0.09007508
 Iteration  9 RMS(Cart)=  0.00009368 RMS(Int)=  0.08992483
 Iteration 10 RMS(Cart)=  0.00009357 RMS(Int)=  0.08977470
 Iteration 11 RMS(Cart)=  0.00009347 RMS(Int)=  0.08962468
 Iteration 12 RMS(Cart)=  0.00009338 RMS(Int)=  0.08947475
 Iteration 13 RMS(Cart)=  0.00009331 RMS(Int)=  0.08932488
 Iteration 14 RMS(Cart)=  0.00009325 RMS(Int)=  0.08917503
 Iteration 15 RMS(Cart)=  0.00009324 RMS(Int)=  0.08902507
 Iteration 16 RMS(Cart)=  0.00009331 RMS(Int)=  0.08887455
 Iteration 17 RMS(Cart)=  0.00009382 RMS(Int)=  1.04673164
 Iteration 18 RMS(Cart)=  0.00344424 RMS(Int)=  0.08361655
 Iteration 19 RMS(Cart)=  0.00008579 RMS(Int)=  0.08347769
 Iteration 20 RMS(Cart)=  0.00008502 RMS(Int)=  0.08334007
 Iteration 21 RMS(Cart)=  0.00008426 RMS(Int)=  0.08320367
 Iteration 22 RMS(Cart)=  0.00008352 RMS(Int)=  0.08306845
 Iteration 23 RMS(Cart)=  0.00008281 RMS(Int)=  0.08293437
 Iteration 24 RMS(Cart)=  0.00008212 RMS(Int)=  0.08280136
 Iteration 25 RMS(Cart)=  0.00008147 RMS(Int)=  0.08266933
 Iteration 26 RMS(Cart)=  0.00008092 RMS(Int)=  0.08253777
 Iteration 27 RMS(Cart)=  0.00008081 RMS(Int)=  1.04656618
 Iteration 28 RMS(Cart)=  0.00324698 RMS(Int)=  0.07760165
 Iteration 29 RMS(Cart)=  0.00005749 RMS(Int)=  0.07750878
 Iteration 30 RMS(Cart)=  0.00005707 RMS(Int)=  0.07741660
 Iteration 31 RMS(Cart)=  0.00005665 RMS(Int)=  0.07732508
 Iteration 32 RMS(Cart)=  0.00005624 RMS(Int)=  0.07723422
 Iteration 33 RMS(Cart)=  0.00005584 RMS(Int)=  0.07714400
 Iteration 34 RMS(Cart)=  0.00005545 RMS(Int)=  0.07705441
 Iteration 35 RMS(Cart)=  0.00005508 RMS(Int)=  0.07696541
 Iteration 36 RMS(Cart)=  0.00005471 RMS(Int)=  0.07687697
 Iteration 37 RMS(Cart)=  0.00005438 RMS(Int)=  0.07678901
 Iteration 38 RMS(Cart)=  0.00005412 RMS(Int)=  0.07670021
 Iteration 39 RMS(Cart)=  0.00005512 RMS(Int)=  1.04656859
 Iteration 40 RMS(Cart)=  0.00295190 RMS(Int)=  0.07231461
 Iteration 41 RMS(Cart)=  0.00004231 RMS(Int)=  0.07224644
 Iteration 42 RMS(Cart)=  0.00004204 RMS(Int)=  0.07217869
 Iteration 43 RMS(Cart)=  0.00004178 RMS(Int)=  0.07211137
 Iteration 44 RMS(Cart)=  0.00004153 RMS(Int)=  0.07204446
 Iteration 45 RMS(Cart)=  0.00004127 RMS(Int)=  0.07197795
 Iteration 46 RMS(Cart)=  0.00004102 RMS(Int)=  0.07191185
 Iteration 47 RMS(Cart)=  0.00004077 RMS(Int)=  0.07184615
 Iteration 48 RMS(Cart)=  0.00004053 RMS(Int)=  0.07178082
 Iteration 49 RMS(Cart)=  0.00004030 RMS(Int)=  0.07171588
 Iteration 50 RMS(Cart)=  0.00004007 RMS(Int)=  0.07165128
 Iteration 51 RMS(Cart)=  0.00003985 RMS(Int)=  0.07158702
 Iteration 52 RMS(Cart)=  0.00003966 RMS(Int)=  0.07152298
 Iteration 53 RMS(Cart)=  0.00003956 RMS(Int)=  1.04664733
 Iteration 54 RMS(Cart)=  0.00269279 RMS(Int)=  0.06762821
 Iteration 55 RMS(Cart)=  0.00002049 RMS(Int)=  0.06759529
 Iteration 56 RMS(Cart)=  0.00002039 RMS(Int)=  0.06756253
 Iteration 57 RMS(Cart)=  0.00002029 RMS(Int)=  0.06752993
 Iteration 58 RMS(Cart)=  0.00002019 RMS(Int)=  0.06749749
 Iteration 59 RMS(Cart)=  0.00002009 RMS(Int)=  0.06746520
 Iteration 60 RMS(Cart)=  0.00002000 RMS(Int)=  0.06743306
 Iteration 61 RMS(Cart)=  0.00001990 RMS(Int)=  0.06740108
 Iteration 62 RMS(Cart)=  0.00001981 RMS(Int)=  0.06736924
 Iteration 63 RMS(Cart)=  0.00001973 RMS(Int)=  0.06733753
 Iteration 64 RMS(Cart)=  0.00001961 RMS(Int)=  0.06730601
 Iteration 65 RMS(Cart)=  0.00001952 RMS(Int)=  0.06727464
 Iteration 66 RMS(Cart)=  0.00001943 RMS(Int)=  0.06724342
 Iteration 67 RMS(Cart)=  0.00001934 RMS(Int)=  0.06721234
 Iteration 68 RMS(Cart)=  0.00001925 RMS(Int)=  0.06718142
 Iteration 69 RMS(Cart)=  0.00001916 RMS(Int)=  0.06715063
 Iteration 70 RMS(Cart)=  0.00001907 RMS(Int)=  0.06711999
 Iteration 71 RMS(Cart)=  0.00001898 RMS(Int)=  0.06708949
 Iteration 72 RMS(Cart)=  0.00001889 RMS(Int)=  0.06705913
 Iteration 73 RMS(Cart)=  0.00001880 RMS(Int)=  0.06702891
 Iteration 74 RMS(Cart)=  0.00001872 RMS(Int)=  0.06699882
 Iteration 75 RMS(Cart)=  0.00001864 RMS(Int)=  0.06696886
 Iteration 76 RMS(Cart)=  0.00001855 RMS(Int)=  0.06693904
 Iteration 77 RMS(Cart)=  0.00001847 RMS(Int)=  0.06690934
 Iteration 78 RMS(Cart)=  0.00001840 RMS(Int)=  0.06687976
 Iteration 79 RMS(Cart)=  0.00001833 RMS(Int)=  0.06685028
 Iteration 80 RMS(Cart)=  0.00001827 RMS(Int)=  0.06682083
 Iteration 81 RMS(Cart)=  0.00001827 RMS(Int)=  1.04648843
 Iteration 82 RMS(Cart)=  0.00246139 RMS(Int)=  0.06337039
 Iteration 83 RMS(Cart)=  0.00000393 RMS(Int)=  0.06336409
 Iteration 84 RMS(Cart)=  0.00000392 RMS(Int)=  0.06335782
 Iteration 85 RMS(Cart)=  0.00000390 RMS(Int)=  0.06335156
 Iteration 86 RMS(Cart)=  0.00000389 RMS(Int)=  0.06334533
 Iteration 87 RMS(Cart)=  0.00000387 RMS(Int)=  0.06333912
 Iteration 88 RMS(Cart)=  0.00000386 RMS(Int)=  0.06333294
 Iteration 89 RMS(Cart)=  0.00000385 RMS(Int)=  0.06332678
 Iteration 90 RMS(Cart)=  0.00000383 RMS(Int)=  0.06332064
 Iteration 91 RMS(Cart)=  0.00000382 RMS(Int)=  0.06331452
 Iteration 92 RMS(Cart)=  0.00000380 RMS(Int)=  0.06330843
 Iteration 93 RMS(Cart)=  0.00000379 RMS(Int)=  0.06330235
 Iteration 94 RMS(Cart)=  0.00000378 RMS(Int)=  0.06329630
 Iteration 95 RMS(Cart)=  0.00000376 RMS(Int)=  0.06329027
 Iteration 96 RMS(Cart)=  0.00000375 RMS(Int)=  0.06328427
 Iteration 97 RMS(Cart)=  0.00000374 RMS(Int)=  0.06327828
 Iteration 98 RMS(Cart)=  0.00000372 RMS(Int)=  0.06327232
 Iteration 99 RMS(Cart)=  0.00000371 RMS(Int)=  0.06326638
 Iteration100 RMS(Cart)=  0.00000369 RMS(Int)=  0.06326046
 New curvilinear step not converged.
 ITry= 1 IFail=1 DXMaxC= 4.94D-02 DCOld= 1.00D+10 DXMaxT= 3.00D-01 DXLimC= 3.00D+00 Rises=F
 Iteration  1 RMS(Cart)=  0.00538564 RMS(Int)=  0.08152785
 Iteration  2 RMS(Cart)=  0.00004153 RMS(Int)=  0.08146065
 Iteration  3 RMS(Cart)=  0.00004122 RMS(Int)=  0.08139396
 Iteration  4 RMS(Cart)=  0.00004091 RMS(Int)=  0.08132776
 Iteration  5 RMS(Cart)=  0.00004061 RMS(Int)=  0.08126205
 Iteration  6 RMS(Cart)=  0.00004031 RMS(Int)=  0.08119682
 Iteration  7 RMS(Cart)=  0.00004001 RMS(Int)=  0.08113208
 Iteration  8 RMS(Cart)=  0.00003972 RMS(Int)=  0.08106781
 Iteration  9 RMS(Cart)=  0.00003943 RMS(Int)=  0.08100401
 Iteration 10 RMS(Cart)=  0.00003914 RMS(Int)=  0.08094068
 Iteration 11 RMS(Cart)=  0.00003886 RMS(Int)=  0.08087781
 Iteration 12 RMS(Cart)=  0.00003857 RMS(Int)=  0.08081539
 Iteration 13 RMS(Cart)=  0.00003829 RMS(Int)=  0.08075343
 Iteration 14 RMS(Cart)=  0.00003802 RMS(Int)=  0.08069191
 Iteration 15 RMS(Cart)=  0.00003774 RMS(Int)=  0.08063084
 Iteration 16 RMS(Cart)=  0.00003747 RMS(Int)=  0.08057020
 Iteration 17 RMS(Cart)=  0.00003721 RMS(Int)=  0.08051000
 Iteration 18 RMS(Cart)=  0.00003694 RMS(Int)=  0.08045022
 Iteration 19 RMS(Cart)=  0.00003668 RMS(Int)=  0.08039087
 Iteration 20 RMS(Cart)=  0.00003642 RMS(Int)=  0.08033193
 Iteration 21 RMS(Cart)=  0.00003617 RMS(Int)=  0.08027341
 Iteration 22 RMS(Cart)=  0.00003592 RMS(Int)=  0.08021529
 Iteration 23 RMS(Cart)=  0.00003567 RMS(Int)=  0.08015757
 Iteration 24 RMS(Cart)=  0.00003543 RMS(Int)=  0.08010024
 Iteration 25 RMS(Cart)=  0.00003516 RMS(Int)=  0.08004335
 Iteration 26 RMS(Cart)=  0.00003491 RMS(Int)=  0.07998686
 Iteration 27 RMS(Cart)=  0.00003467 RMS(Int)=  0.07993075
 Iteration 28 RMS(Cart)=  0.00003443 RMS(Int)=  0.07987504
 Iteration 29 RMS(Cart)=  0.00003419 RMS(Int)=  0.07981971
 Iteration 30 RMS(Cart)=  0.00003396 RMS(Int)=  0.07976476
 Iteration 31 RMS(Cart)=  0.00003373 RMS(Int)=  0.07971018
 Iteration 32 RMS(Cart)=  0.00003350 RMS(Int)=  0.07965597
 Iteration 33 RMS(Cart)=  0.00003327 RMS(Int)=  0.07960214
 Iteration 34 RMS(Cart)=  0.00003304 RMS(Int)=  0.07954866
 Iteration 35 RMS(Cart)=  0.00003282 RMS(Int)=  0.07949555
 Iteration 36 RMS(Cart)=  0.00003260 RMS(Int)=  0.07944279
 Iteration 37 RMS(Cart)=  0.00003238 RMS(Int)=  0.07939039
 Iteration 38 RMS(Cart)=  0.00003217 RMS(Int)=  0.07933833
 Iteration 39 RMS(Cart)=  0.00003195 RMS(Int)=  0.07928662
 Iteration 40 RMS(Cart)=  0.00003174 RMS(Int)=  0.07923525
 Iteration 41 RMS(Cart)=  0.00003154 RMS(Int)=  0.07918421
 Iteration 42 RMS(Cart)=  0.00003133 RMS(Int)=  0.07913350
 Iteration 43 RMS(Cart)=  0.00003113 RMS(Int)=  0.07908312
 Iteration 44 RMS(Cart)=  0.00003093 RMS(Int)=  0.07903306
 Iteration 45 RMS(Cart)=  0.00003073 RMS(Int)=  0.07898332
 Iteration 46 RMS(Cart)=  0.00003054 RMS(Int)=  0.07893388
 Iteration 47 RMS(Cart)=  0.00003035 RMS(Int)=  0.07888475
 Iteration 48 RMS(Cart)=  0.00003017 RMS(Int)=  0.07883591
 Iteration 49 RMS(Cart)=  0.00002999 RMS(Int)=  0.07878735
 Iteration 50 RMS(Cart)=  0.00002982 RMS(Int)=  0.07873905
 Iteration 51 RMS(Cart)=  0.00002966 RMS(Int)=  0.07869098
 Iteration 52 RMS(Cart)=  0.00002952 RMS(Int)=  0.07864304
 Iteration 53 RMS(Cart)=  0.00002947 RMS(Int)=  1.04562772
 Iteration 54 RMS(Cart)=  0.00310210 RMS(Int)=  0.07396280
 New curvilinear step failed, DQL= 3.15D+00 SP=-4.74D-04.
 ITry= 2 IFail=1 DXMaxC= 2.09D-02 DCOld= 1.00D+10 DXMaxT= 3.00D-01 DXLimC= 3.00D+00 Rises=F
 Iteration  1 RMS(Cart)=  0.00495913 RMS(Int)=  0.07214921
 Iteration  2 RMS(Cart)=  0.00038508 RMS(Int)=  0.07152600
 Iteration  3 RMS(Cart)=  0.00037632 RMS(Int)=  0.07091686
 Iteration  4 RMS(Cart)=  0.00036780 RMS(Int)=  0.07032131
 New curvilinear step failed, DQL= 3.15D+00 SP=-6.48D-03.
 ITry= 3 IFail=1 DXMaxC= 1.22D-02 DCOld= 1.00D+10 DXMaxT= 3.00D-01 DXLimC= 3.00D+00 Rises=F
 Iteration  1 RMS(Cart)=  0.00433924 RMS(Int)=  0.06316041
 Iteration  2 RMS(Cart)=  0.00029388 RMS(Int)=  0.06268471
 Iteration  3 RMS(Cart)=  0.00028827 RMS(Int)=  0.06221807
 Iteration  4 RMS(Cart)=  0.00028283 RMS(Int)=  0.06176020
 Iteration  5 RMS(Cart)=  0.00027753 RMS(Int)=  0.06131087
 Iteration  6 RMS(Cart)=  0.00027237 RMS(Int)=  0.06086983
 Iteration  7 RMS(Cart)=  0.00026733 RMS(Int)=  0.06043686
 Iteration  8 RMS(Cart)=  0.00026241 RMS(Int)=  0.06001174
 Iteration  9 RMS(Cart)=  0.00025757 RMS(Int)=  0.05959425
 New curvilinear step failed, DQL= 3.15D+00 SP=-2.19D-02.
 ITry= 4 IFail=1 DXMaxC= 1.32D-02 DCOld= 1.00D+10 DXMaxT= 3.00D-01 DXLimC= 3.00D+00 Rises=F
 Iteration  1 RMS(Cart)=  0.00371934 RMS(Int)=  0.05415538
 Iteration  2 RMS(Cart)=  0.00021101 RMS(Int)=  0.05381381
 Iteration  3 RMS(Cart)=  0.00020774 RMS(Int)=  0.05347752
 Iteration  4 RMS(Cart)=  0.00020455 RMS(Int)=  0.05314638
 Iteration  5 RMS(Cart)=  0.00020144 RMS(Int)=  0.05282026
 Iteration  6 RMS(Cart)=  0.00019841 RMS(Int)=  0.05249905
 Iteration  7 RMS(Cart)=  0.00019544 RMS(Int)=  0.05218263
 Iteration  8 RMS(Cart)=  0.00019254 RMS(Int)=  0.05187089
 Iteration  9 RMS(Cart)=  0.00018971 RMS(Int)=  0.05156372
 Iteration 10 RMS(Cart)=  0.00018693 RMS(Int)=  0.05126102
 Iteration 11 RMS(Cart)=  0.00018422 RMS(Int)=  0.05096270
 Iteration 12 RMS(Cart)=  0.00018156 RMS(Int)=  0.05066865
 Iteration 13 RMS(Cart)=  0.00017896 RMS(Int)=  0.05037879
 Iteration 14 RMS(Cart)=  0.00017640 RMS(Int)=  0.05009304
 Iteration 15 RMS(Cart)=  0.00017389 RMS(Int)=  0.04981129
 Iteration 16 RMS(Cart)=  0.00017141 RMS(Int)=  0.04953348
 Iteration 17 RMS(Cart)=  0.00016896 RMS(Int)=  0.04925950
 New curvilinear step failed, DQL= 3.15D+00 SP=-3.47D-02.
 ITry= 5 IFail=1 DXMaxC= 1.36D-02 DCOld= 1.00D+10 DXMaxT= 3.00D-01 DXLimC= 3.00D+00 Rises=F
 Iteration  1 RMS(Cart)=  0.00309945 RMS(Int)=  0.04514047
 Iteration  2 RMS(Cart)=  0.00014151 RMS(Int)=  0.04491139
 Iteration  3 RMS(Cart)=  0.00013979 RMS(Int)=  0.04468508
 Iteration  4 RMS(Cart)=  0.00013811 RMS(Int)=  0.04446148
 Iteration  5 RMS(Cart)=  0.00013647 RMS(Int)=  0.04424055
 Iteration  6 RMS(Cart)=  0.00013485 RMS(Int)=  0.04402224
 Iteration  7 RMS(Cart)=  0.00013327 RMS(Int)=  0.04380648
 Iteration  8 RMS(Cart)=  0.00013171 RMS(Int)=  0.04359324
 Iteration  9 RMS(Cart)=  0.00013018 RMS(Int)=  0.04338247
 Iteration 10 RMS(Cart)=  0.00012869 RMS(Int)=  0.04317413
 Iteration 11 RMS(Cart)=  0.00012721 RMS(Int)=  0.04296816
 Iteration 12 RMS(Cart)=  0.00012577 RMS(Int)=  0.04276454
 Iteration 13 RMS(Cart)=  0.00012435 RMS(Int)=  0.04256320
 Iteration 14 RMS(Cart)=  0.00012296 RMS(Int)=  0.04236411
 Iteration 15 RMS(Cart)=  0.00012159 RMS(Int)=  0.04216724
 Iteration 16 RMS(Cart)=  0.00012024 RMS(Int)=  0.04197255
 Iteration 17 RMS(Cart)=  0.00011892 RMS(Int)=  0.04178000
 Iteration 18 RMS(Cart)=  0.00011762 RMS(Int)=  0.04158955
 Iteration 19 RMS(Cart)=  0.00011634 RMS(Int)=  0.04140116
 Iteration 20 RMS(Cart)=  0.00011508 RMS(Int)=  0.04121481
 Iteration 21 RMS(Cart)=  0.00011384 RMS(Int)=  0.04103045
 Iteration 22 RMS(Cart)=  0.00011263 RMS(Int)=  0.04084806
 Iteration 23 RMS(Cart)=  0.00011143 RMS(Int)=  0.04066761
 Iteration 24 RMS(Cart)=  0.00011025 RMS(Int)=  0.04048905
 Iteration 25 RMS(Cart)=  0.00010909 RMS(Int)=  0.04031237
 Iteration 26 RMS(Cart)=  0.00010794 RMS(Int)=  0.04013753
 Iteration 27 RMS(Cart)=  0.00010682 RMS(Int)=  0.03996451
 Iteration 28 RMS(Cart)=  0.00010570 RMS(Int)=  0.03979327
 Iteration 29 RMS(Cart)=  0.00010461 RMS(Int)=  0.03962379
 Iteration 30 RMS(Cart)=  0.00010352 RMS(Int)=  0.03945605
 Iteration 31 RMS(Cart)=  0.00010245 RMS(Int)=  0.03929001
 Iteration 32 RMS(Cart)=  0.00010138 RMS(Int)=  0.03912565
 Iteration 33 RMS(Cart)=  0.00010032 RMS(Int)=  0.03896294
 New curvilinear step failed, DQL= 3.14D+00 SP=-4.63D-02.
 ITry= 6 IFail=1 DXMaxC= 1.39D-02 DCOld= 1.00D+10 DXMaxT= 3.00D-01 DXLimC= 3.00D+00 Rises=F
 Iteration  1 RMS(Cart)=  0.00247956 RMS(Int)=  0.03611912
 Iteration  2 RMS(Cart)=  0.00008672 RMS(Int)=  0.03597874
 Iteration  3 RMS(Cart)=  0.00008593 RMS(Int)=  0.03583961
 Iteration  4 RMS(Cart)=  0.00008516 RMS(Int)=  0.03570173
 Iteration  5 RMS(Cart)=  0.00008441 RMS(Int)=  0.03556508
 Iteration  6 RMS(Cart)=  0.00008366 RMS(Int)=  0.03542964
 Iteration  7 RMS(Cart)=  0.00008292 RMS(Int)=  0.03529539
 Iteration  8 RMS(Cart)=  0.00008220 RMS(Int)=  0.03516231
 Iteration  9 RMS(Cart)=  0.00008148 RMS(Int)=  0.03503040
 Iteration 10 RMS(Cart)=  0.00008077 RMS(Int)=  0.03489963
 Iteration 11 RMS(Cart)=  0.00008007 RMS(Int)=  0.03476999
 Iteration 12 RMS(Cart)=  0.00007939 RMS(Int)=  0.03464145
 Iteration 13 RMS(Cart)=  0.00007871 RMS(Int)=  0.03451402
 Iteration 14 RMS(Cart)=  0.00007804 RMS(Int)=  0.03438767
 Iteration 15 RMS(Cart)=  0.00007738 RMS(Int)=  0.03426238
 Iteration 16 RMS(Cart)=  0.00007673 RMS(Int)=  0.03413815
 Iteration 17 RMS(Cart)=  0.00007609 RMS(Int)=  0.03401496
 Iteration 18 RMS(Cart)=  0.00007545 RMS(Int)=  0.03389279
 Iteration 19 RMS(Cart)=  0.00007483 RMS(Int)=  0.03377164
 Iteration 20 RMS(Cart)=  0.00007421 RMS(Int)=  0.03365148
 Iteration 21 RMS(Cart)=  0.00007360 RMS(Int)=  0.03353231
 Iteration 22 RMS(Cart)=  0.00007300 RMS(Int)=  0.03341411
 Iteration 23 RMS(Cart)=  0.00007241 RMS(Int)=  0.03329687
 Iteration 24 RMS(Cart)=  0.00007182 RMS(Int)=  0.03318058
 Iteration 25 RMS(Cart)=  0.00007125 RMS(Int)=  0.03306522
 Iteration 26 RMS(Cart)=  0.00007067 RMS(Int)=  0.03295079
 Iteration 27 RMS(Cart)=  0.00007011 RMS(Int)=  0.03283726
 Iteration 28 RMS(Cart)=  0.00006955 RMS(Int)=  0.03272464
 Iteration 29 RMS(Cart)=  0.00006901 RMS(Int)=  0.03261291
 Iteration 30 RMS(Cart)=  0.00006846 RMS(Int)=  0.03250206
 Iteration 31 RMS(Cart)=  0.00006793 RMS(Int)=  0.03239207
 Iteration 32 RMS(Cart)=  0.00006740 RMS(Int)=  0.03228294
 Iteration 33 RMS(Cart)=  0.00006687 RMS(Int)=  0.03217465
 Iteration 34 RMS(Cart)=  0.00006636 RMS(Int)=  0.03206721
 Iteration 35 RMS(Cart)=  0.00006585 RMS(Int)=  0.03196058
 Iteration 36 RMS(Cart)=  0.00006534 RMS(Int)=  0.03185477
 Iteration 37 RMS(Cart)=  0.00006485 RMS(Int)=  0.03174976
 Iteration 38 RMS(Cart)=  0.00006435 RMS(Int)=  0.03164556
 Iteration 39 RMS(Cart)=  0.00006387 RMS(Int)=  0.03154214
 Iteration 40 RMS(Cart)=  0.00006339 RMS(Int)=  0.03143949
 Iteration 41 RMS(Cart)=  0.00006291 RMS(Int)=  0.03133762
 Iteration 42 RMS(Cart)=  0.00006244 RMS(Int)=  0.03123650
 Iteration 43 RMS(Cart)=  0.00006198 RMS(Int)=  0.03113614
 Iteration 44 RMS(Cart)=  0.00006152 RMS(Int)=  0.03103651
 Iteration 45 RMS(Cart)=  0.00006107 RMS(Int)=  0.03093762
 Iteration 46 RMS(Cart)=  0.00006062 RMS(Int)=  0.03083946
 Iteration 47 RMS(Cart)=  0.00006018 RMS(Int)=  0.03074201
 Iteration 48 RMS(Cart)=  0.00005974 RMS(Int)=  0.03064527
 Iteration 49 RMS(Cart)=  0.00005931 RMS(Int)=  0.03054922
 Iteration 50 RMS(Cart)=  0.00005888 RMS(Int)=  0.03045387
 Iteration 51 RMS(Cart)=  0.00005846 RMS(Int)=  0.03035920
 Iteration 52 RMS(Cart)=  0.00005804 RMS(Int)=  0.03026521
 Iteration 53 RMS(Cart)=  0.00005762 RMS(Int)=  0.03017189
 Iteration 54 RMS(Cart)=  0.00005721 RMS(Int)=  0.03007923
 Iteration 55 RMS(Cart)=  0.00005681 RMS(Int)=  0.02998723
 Iteration 56 RMS(Cart)=  0.00005640 RMS(Int)=  0.02989587
 Iteration 57 RMS(Cart)=  0.00005601 RMS(Int)=  0.02980516
 Iteration 58 RMS(Cart)=  0.00005561 RMS(Int)=  0.02971508
 Iteration 59 RMS(Cart)=  0.00005522 RMS(Int)=  0.02962563
 Iteration 60 RMS(Cart)=  0.00005484 RMS(Int)=  0.02953681
 Iteration 61 RMS(Cart)=  0.00005445 RMS(Int)=  0.02944859
 Iteration 62 RMS(Cart)=  0.00005408 RMS(Int)=  0.02936099
 Iteration 63 RMS(Cart)=  0.00005370 RMS(Int)=  0.02927399
 Iteration 64 RMS(Cart)=  0.00005333 RMS(Int)=  0.02918759
 Iteration 65 RMS(Cart)=  0.00005296 RMS(Int)=  0.02910178
 Iteration 66 RMS(Cart)=  0.00005259 RMS(Int)=  0.02901655
 Iteration 67 RMS(Cart)=  0.00005223 RMS(Int)=  0.02893190
 Iteration 68 RMS(Cart)=  0.00005186 RMS(Int)=  0.02884783
 Iteration 69 RMS(Cart)=  0.00005150 RMS(Int)=  0.02876431
 New curvilinear step failed, DQL= 3.14D+00 SP=-5.72D-02.
 ITry= 7 IFail=1 DXMaxC= 1.41D-02 DCOld= 1.00D+10 DXMaxT= 3.00D-01 DXLimC= 3.00D+00 Rises=F
 Iteration  1 RMS(Cart)=  0.00185967 RMS(Int)=  0.02709335
 Iteration  2 RMS(Cart)=  0.00004638 RMS(Int)=  0.02701827
 Iteration  3 RMS(Cart)=  0.00004609 RMS(Int)=  0.02694364
 Iteration  4 RMS(Cart)=  0.00004580 RMS(Int)=  0.02686949
 Iteration  5 RMS(Cart)=  0.00004552 RMS(Int)=  0.02679579
 Iteration  6 RMS(Cart)=  0.00004524 RMS(Int)=  0.02672254
 Iteration  7 RMS(Cart)=  0.00004496 RMS(Int)=  0.02664974
 Iteration  8 RMS(Cart)=  0.00004469 RMS(Int)=  0.02657739
 Iteration  9 RMS(Cart)=  0.00004442 RMS(Int)=  0.02650548
 Iteration 10 RMS(Cart)=  0.00004415 RMS(Int)=  0.02643400
 Iteration 11 RMS(Cart)=  0.00004388 RMS(Int)=  0.02636296
 Iteration 12 RMS(Cart)=  0.00004361 RMS(Int)=  0.02629235
 Iteration 13 RMS(Cart)=  0.00004335 RMS(Int)=  0.02622216
 Iteration 14 RMS(Cart)=  0.00004309 RMS(Int)=  0.02615239
 Iteration 15 RMS(Cart)=  0.00004284 RMS(Int)=  0.02608303
 Iteration 16 RMS(Cart)=  0.00004258 RMS(Int)=  0.02601409
 Iteration 17 RMS(Cart)=  0.00004233 RMS(Int)=  0.02594556
 Iteration 18 RMS(Cart)=  0.00004208 RMS(Int)=  0.02587743
 Iteration 19 RMS(Cart)=  0.00004183 RMS(Int)=  0.02580970
 Iteration 20 RMS(Cart)=  0.00004159 RMS(Int)=  0.02574237
 Iteration 21 RMS(Cart)=  0.00004134 RMS(Int)=  0.02567543
 Iteration 22 RMS(Cart)=  0.00004110 RMS(Int)=  0.02560888
 Iteration 23 RMS(Cart)=  0.00004086 RMS(Int)=  0.02554272
 Iteration 24 RMS(Cart)=  0.00004063 RMS(Int)=  0.02547694
 Iteration 25 RMS(Cart)=  0.00004039 RMS(Int)=  0.02541153
 Iteration 26 RMS(Cart)=  0.00004016 RMS(Int)=  0.02534651
 Iteration 27 RMS(Cart)=  0.00003993 RMS(Int)=  0.02528185
 Iteration 28 RMS(Cart)=  0.00003970 RMS(Int)=  0.02521757
 Iteration 29 RMS(Cart)=  0.00003948 RMS(Int)=  0.02515365
 Iteration 30 RMS(Cart)=  0.00003925 RMS(Int)=  0.02509009
 Iteration 31 RMS(Cart)=  0.00003903 RMS(Int)=  0.02502689
 Iteration 32 RMS(Cart)=  0.00003881 RMS(Int)=  0.02496404
 Iteration 33 RMS(Cart)=  0.00003860 RMS(Int)=  0.02490155
 Iteration 34 RMS(Cart)=  0.00003838 RMS(Int)=  0.02483941
 Iteration 35 RMS(Cart)=  0.00003817 RMS(Int)=  0.02477761
 Iteration 36 RMS(Cart)=  0.00003795 RMS(Int)=  0.02471616
 Iteration 37 RMS(Cart)=  0.00003774 RMS(Int)=  0.02465505
 Iteration 38 RMS(Cart)=  0.00003754 RMS(Int)=  0.02459427
 Iteration 39 RMS(Cart)=  0.00003733 RMS(Int)=  0.02453383
 Iteration 40 RMS(Cart)=  0.00003712 RMS(Int)=  0.02447372
 Iteration 41 RMS(Cart)=  0.00003692 RMS(Int)=  0.02441394
 Iteration 42 RMS(Cart)=  0.00003672 RMS(Int)=  0.02435448
 Iteration 43 RMS(Cart)=  0.00003652 RMS(Int)=  0.02429535
 Iteration 44 RMS(Cart)=  0.00003632 RMS(Int)=  0.02423654
 Iteration 45 RMS(Cart)=  0.00003613 RMS(Int)=  0.02417804
 Iteration 46 RMS(Cart)=  0.00003593 RMS(Int)=  0.02411986
 Iteration 47 RMS(Cart)=  0.00003574 RMS(Int)=  0.02406199
 Iteration 48 RMS(Cart)=  0.00003555 RMS(Int)=  0.02400443
 Iteration 49 RMS(Cart)=  0.00003536 RMS(Int)=  0.02394717
 Iteration 50 RMS(Cart)=  0.00003517 RMS(Int)=  0.02389023
 Iteration 51 RMS(Cart)=  0.00003499 RMS(Int)=  0.02383358
 Iteration 52 RMS(Cart)=  0.00003480 RMS(Int)=  0.02377723
 Iteration 53 RMS(Cart)=  0.00003462 RMS(Int)=  0.02372118
 Iteration 54 RMS(Cart)=  0.00003444 RMS(Int)=  0.02366542
 Iteration 55 RMS(Cart)=  0.00003426 RMS(Int)=  0.02360995
 Iteration 56 RMS(Cart)=  0.00003408 RMS(Int)=  0.02355477
 Iteration 57 RMS(Cart)=  0.00003390 RMS(Int)=  0.02349988
 Iteration 58 RMS(Cart)=  0.00003372 RMS(Int)=  0.02344528
 Iteration 59 RMS(Cart)=  0.00003355 RMS(Int)=  0.02339095
 Iteration 60 RMS(Cart)=  0.00003338 RMS(Int)=  0.02333691
 Iteration 61 RMS(Cart)=  0.00003321 RMS(Int)=  0.02328314
 Iteration 62 RMS(Cart)=  0.00003303 RMS(Int)=  0.02322965
 Iteration 63 RMS(Cart)=  0.00003287 RMS(Int)=  0.02317643
 Iteration 64 RMS(Cart)=  0.00003270 RMS(Int)=  0.02312349
 Iteration 65 RMS(Cart)=  0.00003253 RMS(Int)=  0.02307081
 Iteration 66 RMS(Cart)=  0.00003237 RMS(Int)=  0.02301840
 Iteration 67 RMS(Cart)=  0.00003220 RMS(Int)=  0.02296625
 Iteration 68 RMS(Cart)=  0.00003204 RMS(Int)=  0.02291436
 Iteration 69 RMS(Cart)=  0.00003188 RMS(Int)=  0.02286274
 Iteration 70 RMS(Cart)=  0.00003172 RMS(Int)=  0.02281137
 Iteration 71 RMS(Cart)=  0.00003156 RMS(Int)=  0.02276026
 Iteration 72 RMS(Cart)=  0.00003141 RMS(Int)=  0.02270940
 Iteration 73 RMS(Cart)=  0.00003125 RMS(Int)=  0.02265880
 Iteration 74 RMS(Cart)=  0.00003110 RMS(Int)=  0.02260845
 Iteration 75 RMS(Cart)=  0.00003094 RMS(Int)=  0.02255834
 Iteration 76 RMS(Cart)=  0.00003079 RMS(Int)=  0.02250848
 Iteration 77 RMS(Cart)=  0.00003064 RMS(Int)=  0.02245887
 Iteration 78 RMS(Cart)=  0.00003049 RMS(Int)=  0.02240950
 Iteration 79 RMS(Cart)=  0.00003034 RMS(Int)=  0.02236036
 Iteration 80 RMS(Cart)=  0.00003019 RMS(Int)=  0.02231147
 Iteration 81 RMS(Cart)=  0.00003005 RMS(Int)=  0.02226282
 Iteration 82 RMS(Cart)=  0.00002990 RMS(Int)=  0.02221439
 Iteration 83 RMS(Cart)=  0.00002976 RMS(Int)=  0.02216621
 Iteration 84 RMS(Cart)=  0.00002961 RMS(Int)=  0.02211825
 Iteration 85 RMS(Cart)=  0.00002947 RMS(Int)=  0.02207053
 Iteration 86 RMS(Cart)=  0.00002933 RMS(Int)=  0.02202303
 Iteration 87 RMS(Cart)=  0.00002919 RMS(Int)=  0.02197576
 Iteration 88 RMS(Cart)=  0.00002905 RMS(Int)=  0.02192871
 Iteration 89 RMS(Cart)=  0.00002892 RMS(Int)=  0.02188189
 Iteration 90 RMS(Cart)=  0.00002878 RMS(Int)=  0.02183529
 Iteration 91 RMS(Cart)=  0.00002864 RMS(Int)=  0.02178890
 Iteration 92 RMS(Cart)=  0.00002851 RMS(Int)=  0.02174274
 Iteration 93 RMS(Cart)=  0.00002837 RMS(Int)=  0.02169679
 Iteration 94 RMS(Cart)=  0.00002824 RMS(Int)=  0.02165106
 Iteration 95 RMS(Cart)=  0.00002811 RMS(Int)=  0.02160554
 Iteration 96 RMS(Cart)=  0.00002798 RMS(Int)=  0.02156023
 Iteration 97 RMS(Cart)=  0.00002785 RMS(Int)=  0.02151514
 Iteration 98 RMS(Cart)=  0.00002772 RMS(Int)=  0.02147025
 Iteration 99 RMS(Cart)=  0.00002759 RMS(Int)=  0.02142557
 Iteration100 RMS(Cart)=  0.00002747 RMS(Int)=  0.02138109
 New curvilinear step not converged.
 ITry= 8 IFail=1 DXMaxC= 1.08D-02 DCOld= 1.00D+10 DXMaxT= 3.00D-01 DXLimC= 3.00D+00 Rises=F
 Iteration  1 RMS(Cart)=  0.00123978 RMS(Int)=  0.01806441
 Iteration  2 RMS(Cart)=  0.00001948 RMS(Int)=  0.01803287
 Iteration  3 RMS(Cart)=  0.00001941 RMS(Int)=  0.01800145
 Iteration  4 RMS(Cart)=  0.00001933 RMS(Int)=  0.01797014
 Iteration  5 RMS(Cart)=  0.00001926 RMS(Int)=  0.01793896
 Iteration  6 RMS(Cart)=  0.00001919 RMS(Int)=  0.01790789
 Iteration  7 RMS(Cart)=  0.00001912 RMS(Int)=  0.01787694
 Iteration  8 RMS(Cart)=  0.00001904 RMS(Int)=  0.01784610
 Iteration  9 RMS(Cart)=  0.00001897 RMS(Int)=  0.01781538
 Iteration 10 RMS(Cart)=  0.00001890 RMS(Int)=  0.01778478
 Iteration 11 RMS(Cart)=  0.00001883 RMS(Int)=  0.01775429
 Iteration 12 RMS(Cart)=  0.00001876 RMS(Int)=  0.01772391
 Iteration 13 RMS(Cart)=  0.00001869 RMS(Int)=  0.01769365
 Iteration 14 RMS(Cart)=  0.00001862 RMS(Int)=  0.01766349
 Iteration 15 RMS(Cart)=  0.00001855 RMS(Int)=  0.01763345
 Iteration 16 RMS(Cart)=  0.00001848 RMS(Int)=  0.01760353
 Iteration 17 RMS(Cart)=  0.00001842 RMS(Int)=  0.01757371
 Iteration 18 RMS(Cart)=  0.00001835 RMS(Int)=  0.01754400
 Iteration 19 RMS(Cart)=  0.00001828 RMS(Int)=  0.01751440
 Iteration 20 RMS(Cart)=  0.00001821 RMS(Int)=  0.01748491
 Iteration 21 RMS(Cart)=  0.00001815 RMS(Int)=  0.01745552
 Iteration 22 RMS(Cart)=  0.00001808 RMS(Int)=  0.01742625
 Iteration 23 RMS(Cart)=  0.00001802 RMS(Int)=  0.01739708
 Iteration 24 RMS(Cart)=  0.00001795 RMS(Int)=  0.01736801
 Iteration 25 RMS(Cart)=  0.00001789 RMS(Int)=  0.01733905
 Iteration 26 RMS(Cart)=  0.00001782 RMS(Int)=  0.01731020
 Iteration 27 RMS(Cart)=  0.00001776 RMS(Int)=  0.01728145
 Iteration 28 RMS(Cart)=  0.00001769 RMS(Int)=  0.01725280
 Iteration 29 RMS(Cart)=  0.00001763 RMS(Int)=  0.01722426
 Iteration 30 RMS(Cart)=  0.00001757 RMS(Int)=  0.01719582
 Iteration 31 RMS(Cart)=  0.00001750 RMS(Int)=  0.01716748
 Iteration 32 RMS(Cart)=  0.00001744 RMS(Int)=  0.01713924
 Iteration 33 RMS(Cart)=  0.00001738 RMS(Int)=  0.01711110
 Iteration 34 RMS(Cart)=  0.00001732 RMS(Int)=  0.01708306
 Iteration 35 RMS(Cart)=  0.00001725 RMS(Int)=  0.01705513
 Iteration 36 RMS(Cart)=  0.00001719 RMS(Int)=  0.01702729
 Iteration 37 RMS(Cart)=  0.00001713 RMS(Int)=  0.01699955
 Iteration 38 RMS(Cart)=  0.00001707 RMS(Int)=  0.01697191
 Iteration 39 RMS(Cart)=  0.00001701 RMS(Int)=  0.01694436
 Iteration 40 RMS(Cart)=  0.00001695 RMS(Int)=  0.01691691
 Iteration 41 RMS(Cart)=  0.00001689 RMS(Int)=  0.01688956
 Iteration 42 RMS(Cart)=  0.00001683 RMS(Int)=  0.01686230
 Iteration 43 RMS(Cart)=  0.00001677 RMS(Int)=  0.01683514
 Iteration 44 RMS(Cart)=  0.00001672 RMS(Int)=  0.01680808
 Iteration 45 RMS(Cart)=  0.00001666 RMS(Int)=  0.01678110
 Iteration 46 RMS(Cart)=  0.00001660 RMS(Int)=  0.01675423
 Iteration 47 RMS(Cart)=  0.00001654 RMS(Int)=  0.01672744
 Iteration 48 RMS(Cart)=  0.00001649 RMS(Int)=  0.01670075
 Iteration 49 RMS(Cart)=  0.00001643 RMS(Int)=  0.01667415
 Iteration 50 RMS(Cart)=  0.00001637 RMS(Int)=  0.01664764
 Iteration 51 RMS(Cart)=  0.00001632 RMS(Int)=  0.01662122
 Iteration 52 RMS(Cart)=  0.00001626 RMS(Int)=  0.01659490
 Iteration 53 RMS(Cart)=  0.00001620 RMS(Int)=  0.01656866
 Iteration 54 RMS(Cart)=  0.00001615 RMS(Int)=  0.01654251
 Iteration 55 RMS(Cart)=  0.00001609 RMS(Int)=  0.01651645
 Iteration 56 RMS(Cart)=  0.00001604 RMS(Int)=  0.01649049
 Iteration 57 RMS(Cart)=  0.00001598 RMS(Int)=  0.01646460
 Iteration 58 RMS(Cart)=  0.00001593 RMS(Int)=  0.01643881
 Iteration 59 RMS(Cart)=  0.00001588 RMS(Int)=  0.01641311
 Iteration 60 RMS(Cart)=  0.00001582 RMS(Int)=  0.01638749
 Iteration 61 RMS(Cart)=  0.00001577 RMS(Int)=  0.01636196
 Iteration 62 RMS(Cart)=  0.00001572 RMS(Int)=  0.01633651
 Iteration 63 RMS(Cart)=  0.00001566 RMS(Int)=  0.01631115
 Iteration 64 RMS(Cart)=  0.00001561 RMS(Int)=  0.01628587
 Iteration 65 RMS(Cart)=  0.00001556 RMS(Int)=  0.01626068
 Iteration 66 RMS(Cart)=  0.00001551 RMS(Int)=  0.01623557
 Iteration 67 RMS(Cart)=  0.00001545 RMS(Int)=  0.01621055
 Iteration 68 RMS(Cart)=  0.00001540 RMS(Int)=  0.01618561
 Iteration 69 RMS(Cart)=  0.00001535 RMS(Int)=  0.01616075
 Iteration 70 RMS(Cart)=  0.00001530 RMS(Int)=  0.01613598
 Iteration 71 RMS(Cart)=  0.00001525 RMS(Int)=  0.01611129
 Iteration 72 RMS(Cart)=  0.00001520 RMS(Int)=  0.01608668
 Iteration 73 RMS(Cart)=  0.00001515 RMS(Int)=  0.01606215
 Iteration 74 RMS(Cart)=  0.00001510 RMS(Int)=  0.01603770
 Iteration 75 RMS(Cart)=  0.00001505 RMS(Int)=  0.01601333
 Iteration 76 RMS(Cart)=  0.00001500 RMS(Int)=  0.01598904
 Iteration 77 RMS(Cart)=  0.00001495 RMS(Int)=  0.01596483
 Iteration 78 RMS(Cart)=  0.00001490 RMS(Int)=  0.01594070
 Iteration 79 RMS(Cart)=  0.00001485 RMS(Int)=  0.01591665
 Iteration 80 RMS(Cart)=  0.00001481 RMS(Int)=  0.01589268
 Iteration 81 RMS(Cart)=  0.00001476 RMS(Int)=  0.01586878
 Iteration 82 RMS(Cart)=  0.00001471 RMS(Int)=  0.01584496
 Iteration 83 RMS(Cart)=  0.00001466 RMS(Int)=  0.01582122
 Iteration 84 RMS(Cart)=  0.00001461 RMS(Int)=  0.01579756
 Iteration 85 RMS(Cart)=  0.00001457 RMS(Int)=  0.01577397
 Iteration 86 RMS(Cart)=  0.00001452 RMS(Int)=  0.01575046
 Iteration 87 RMS(Cart)=  0.00001447 RMS(Int)=  0.01572702
 Iteration 88 RMS(Cart)=  0.00001443 RMS(Int)=  0.01570366
 Iteration 89 RMS(Cart)=  0.00001438 RMS(Int)=  0.01568037
 Iteration 90 RMS(Cart)=  0.00001434 RMS(Int)=  0.01565716
 Iteration 91 RMS(Cart)=  0.00001429 RMS(Int)=  0.01563402
 Iteration 92 RMS(Cart)=  0.00001424 RMS(Int)=  0.01561096
 Iteration 93 RMS(Cart)=  0.00001420 RMS(Int)=  0.01558797
 Iteration 94 RMS(Cart)=  0.00001415 RMS(Int)=  0.01556505
 Iteration 95 RMS(Cart)=  0.00001411 RMS(Int)=  0.01554221
 Iteration 96 RMS(Cart)=  0.00001406 RMS(Int)=  0.01551943
 Iteration 97 RMS(Cart)=  0.00001402 RMS(Int)=  0.01549673
 Iteration 98 RMS(Cart)=  0.00001398 RMS(Int)=  0.01547410
 Iteration 99 RMS(Cart)=  0.00001393 RMS(Int)=  0.01545154
 Iteration100 RMS(Cart)=  0.00001389 RMS(Int)=  0.01542905
 New curvilinear step not converged.
 ITry= 9 IFail=1 DXMaxC= 5.77D-03 DCOld= 1.00D+10 DXMaxT= 3.00D-01 DXLimC= 3.00D+00 Rises=F
 Iteration  1 RMS(Cart)=  0.00467627 RMS(Int)=  0.00265571
 Iteration  2 RMS(Cart)=  0.00105163 RMS(Int)=  0.00077974
 Iteration  3 RMS(Cart)=  0.00045384 RMS(Int)=  0.00007639
 Iteration  4 RMS(Cart)=  0.00001600 RMS(Int)=  0.00001431
 Iteration  5 RMS(Cart)=  0.00000022 RMS(Int)=  0.00001431
 ITry=10 IFail=0 DXMaxC= 1.25D-02 DCOld= 1.00D+10 DXMaxT= 3.00D-01 DXLimC= 3.00D+00 Rises=F
 ClnCor:  largest displacement from symmetrization is 2.33D-06 for atom     1.
 Variable       Old X    -DE/DX   Delta X   Delta X   Delta X     New X
                                 (Linear)    (Quad)   (Total)
    R1        1.94909   0.08491   0.00000  -0.07635  -0.00764   1.94146
    R2        3.43370   0.03042   0.00000   0.13394   0.01339   3.44709
    R3        2.40561  -0.16838   0.00000   0.01604   0.00160   2.40722
    R4        1.93264   0.01001   0.00000   0.23897   0.02390   1.95654
    A1        0.48298   0.01934   0.00000   0.04819   0.00482   0.48780
    A2        3.13274  -0.04769   0.00000   0.07594   0.00759   3.14034
    A3        2.64977  -0.06702   0.00000   0.02775   0.00277   2.65254
    D1        3.14159   0.00000   0.00000  -0.00050   0.00000   3.14159
    D2        0.00000   0.00000   0.00000  -0.02618   0.00000   0.00000
         Item               Value     Threshold  Converged?
 Maximum Force            0.168382     0.000450     NO 
 RMS     Force            0.069705     0.000300     NO 
 Maximum Displacement     0.012470     0.001800     NO 
 RMS     Displacement     0.006198     0.001200     NO 
 Predicted change in Energy= 7.395977D-04
 GradGradGradGradGradGradGradGradGradGradGradGradGradGradGradGradGradGrad

                          Input orientation:                          
 ---------------------------------------------------------------------
 Center     Atomic      Atomic             Coordinates (Angstroms)
 Number     Number       Type             X           Y           Z
 ---------------------------------------------------------------------
      1          6           0       -0.457656    0.084942    0.000000
      2          1           0       -1.476137    0.219829    0.000000
      3          1           0       -2.167324   -0.551029    0.000000
      4          8           0        0.804950   -0.083889    0.000000
 ---------------------------------------------------------------------
                    Distance matrix (angstroms):
                    1          2          3          4
     1  C    0.000000
     2  H    1.027374   0.000000
     3  H    1.824124   1.035356   0.000000
     4  O    1.273844   2.301217   3.008760   0.000000
 Stoichiometry    CH2O
 Framework group  CS[SG(CH2O)]
 Deg. of freedom     5
 Full point group                 CS      NOp   2
 Largest Abelian subgroup         CS      NOp   2
 Largest concise Abelian subgroup C1      NOp   1
                         Standard orientation:                         
 ---------------------------------------------------------------------
 Center     Atomic      Atomic             Coordinates (Angstroms)
 Number     Number       Type             X           Y           Z
 ---------------------------------------------------------------------
      1          6           0        0.053640    0.472067    0.000000
      2          1           0        0.052350    1.499441    0.000000
      3          1           0       -0.803315    2.082364    0.000000
      4          8           0        0.053640   -0.801776    0.000000
 ---------------------------------------------------------------------
 Rotational constants (GHZ):    969.8543626     26.0951938     25.4114653
 Standard basis: 6-31G(d) (6D, 7F)
 There are    26 symmetry adapted cartesian basis functions of A'  symmetry.
 There are     8 symmetry adapted cartesian basis functions of A"  symmetry.
 There are    26 symmetry adapted basis functions of A'  symmetry.
 There are     8 symmetry adapted basis functions of A"  symmetry.
    34 basis functions,    64 primitive gaussians,    34 cartesian basis functions
     8 alpha electrons        8 beta electrons
[...]
 Center     Atomic      Atomic             Coordinates (Angstroms)
 Number     Number       Type             X           Y           Z
 ---------------------------------------------------------------------
      1          6           0       -0.418636    0.257012   -0.000244
      2          1           0       -1.510789    0.290492    0.000913
      3          1           0       -1.532379   -1.058456   -0.000172
      4          8           0        0.694373   -0.096763    0.000091
 ---------------------------------------------------------------------
 Rotational constants (GHZ):    251.5842403     35.3230518     30.9742035
 Standard basis: 6-31G(d) (6D, 7F)
 There are    34 symmetry adapted cartesian basis functions of A   symmetry.
 There are    34 symmetry adapted basis functions of A   symmetry.
    34 basis functions,    64 primitive gaussians,    34 cartesian basis functions
     8 alpha electrons        8 beta electrons
       nuclear repulsion energy        30.5255185707 Hartrees.
 NAtoms=    4 NActive=    4 NUniq=    4 SFac= 1.00D+00 NAtFMM=   60 NAOKFM=F Big=F
 Integral buffers will be    131072 words long.
 Raffenetti 2 integral format.
 Two-electron integral symmetry is turned on.
 One-electron integrals computed using PRISM.
 NBasis=    34 RedAO= T EigKep=  5.18D-03  NBF=    34
 NBsUse=    34 1.00D-06 EigRej= -1.00D+00 NBFU=    34
 Initial guess from the checkpoint file:  "C:\Work\Gau-15508.chk"
 B after Tr=     0.000000    0.000000    0.000000
         Rot=    1.000000    0.000000    0.000000    0.000000 Ang=   0.00 deg.
 Keep R1 ints in memory in canonical form, NReq=1059956.
 Requested convergence on RMS density matrix=1.00D-08 within 128 cycles.
 Requested convergence on MAX density matrix=1.00D-06.
 Requested convergence on             energy=1.00D-06.
 No special actions if energy rises.
 SCF Done:  E(RB3LYP) =  -114.357973061     A.U. after    1 cycles
            NFock=  1  Conv=0.94D-09     -V/T= 2.0089
 DoSCS=F DFT=T ScalE2(SS,OS)=  1.000000  1.000000
 Range of M.O.s used for correlation:     1    34
 NBasis=    34 NAE=     8 NBE=     8 NFC=     0 NFV=     0
 NROrb=     34 NOA=     8 NOB=     8 NVA=    26 NVB=    26
 Symmetrizing basis deriv contribution to polar:
 IMax=3 JMax=2 DiffMx= 0.00D+00
 G2DrvN: will do     5 centers at a time, making    1 passes.
 Calling FoFCou, ICntrl=  3107 FMM=F I1Cent=   0 AccDes= 0.00D+00.
 End of G2Drv F.D. properties file   721 does not exist.
 End of G2Drv F.D. properties file   722 does not exist.
 End of G2Drv F.D. properties file   788 does not exist.
          IDoAtm=1111
          Differentiating once with respect to electric field.
                with respect to dipole field.
          Differentiating once with respect to nuclear coordinates.
 Keep R1 ints in memory in canonical form, NReq=1037156.
          There are    15 degrees of freedom in the 1st order CPHF.  IDoFFX=6 NUNeed=     3.
     12 vectors produced by pass  0 Test12= 1.39D-15 6.67D-09 XBig12= 5.19D+01 6.27D+00.
 AX will form    12 AO Fock derivatives at one time.
     12 vectors produced by pass  1 Test12= 1.39D-15 6.67D-09 XBig12= 9.62D+00 9.92D-01.
     12 vectors produced by pass  2 Test12= 1.39D-15 6.67D-09 XBig12= 2.37D-02 6.24D-02.
     12 vectors produced by pass  3 Test12= 1.39D-15 6.67D-09 XBig12= 5.42D-05 2.78D-03.
     12 vectors produced by pass  4 Test12= 1.39D-15 6.67D-09 XBig12= 3.35D-08 4.49D-05.
      6 vectors produced by pass  5 Test12= 1.39D-15 6.67D-09 XBig12= 1.56D-11 1.24D-06.
      2 vectors produced by pass  6 Test12= 1.39D-15 6.67D-09 XBig12= 8.44D-15 3.61D-08.
 InvSVY:  IOpt=1 It=  1 EMax= 1.11D-15
 Solved reduced A of dimension    68 with    12 vectors.
 Isotropic polarizability for W=    0.000000       18.33 Bohr**3.
 End of Minotr F.D. properties file   721 does not exist.
 End of Minotr F.D. properties file   722 does not exist.
 End of Minotr F.D. properties file   788 does not exist.

 **********************************************************************

            Population analysis using the SCF density.

 **********************************************************************

 Orbital symmetries:
       Occupied  (A) (A) (A) (A) (A) (A) (A) (A)
       Virtual   (A) (A) (A) (A) (A) (A) (A) (A) (A) (A) (A) (A)
                 (A) (A) (A) (A) (A) (A) (A) (A) (A) (A) (A) (A)
                 (A) (A)
 The electronic state is 1-A.
 Alpha  occ. eigenvalues --  -19.24374 -10.34046  -1.13688  -0.67125  -0.52536
 Alpha  occ. eigenvalues --   -0.45885  -0.45846  -0.22173
 Alpha virt. eigenvalues --   -0.06616  -0.00992   0.04354   0.28541   0.47877
 Alpha virt. eigenvalues --    0.53341   0.60718   0.72350   0.77397   0.83834
 Alpha virt. eigenvalues --    0.91882   0.93553   1.04225   1.47127   1.47626
 Alpha virt. eigenvalues --    1.48434   1.50883   1.60417   1.91871   1.93056
 Alpha virt. eigenvalues --    2.45407   2.52657   2.64677   2.93588   3.86371
 Alpha virt. eigenvalues --    4.05562
          Condensed to atoms (all electrons):
               1          2          3          4
     1  C    5.020934   0.236592  -0.020854   0.577943
     2  H    0.236592   0.364307   0.103282  -0.025020
     3  H   -0.020854   0.103282   1.215191  -0.055504
     4  O    0.577943  -0.025020  -0.055504   7.766690
 Mulliken charges:
               1
     1  C    0.185385
     2  H    0.320839
     3  H   -0.242115
     4  O   -0.264109
 Sum of Mulliken charges =   0.00000
 Mulliken charges with hydrogens summed into heavy atoms:
               1
     1  C    0.264109
     4  O   -0.264109
 APT charges:
               1
     1  C    0.432170
     2  H    0.377743
     3  H   -0.441674
     4  O   -0.368238
 Sum of APT charges =   0.00000
 APT charges with hydrogens summed into heavy atoms:
               1
     1  C    0.368238
     4  O   -0.368238
 Electronic spatial extent (au):  <R**2>=             69.3996
 Charge=              0.0000 electrons
 Dipole moment (field-independent basis, Debye):
    X=             -0.8036    Y=              1.7725    Z=              0.0008  Tot=              1.9461
 Quadrupole moment (field-independent basis, Debye-Ang):
   XX=            -12.9797   YY=            -14.7031   ZZ=            -11.7921
   XY=             -2.7442   XZ=             -0.0021   YZ=              0.0003
 Traceless Quadrupole moment (field-independent basis, Debye-Ang):
   XX=              0.1786   YY=             -1.5448   ZZ=              1.3662
   XY=             -2.7442   XZ=             -0.0021   YZ=              0.0003
 Octapole moment (field-independent basis, Debye-Ang**2):
  XXX=              5.6557  YYY=              3.7081  ZZZ=              0.0013  XYY=              5.0662
  XXY=              5.4376  XXZ=              0.0045  XZZ=              2.0245  YZZ=              0.8503
  YYZ=              0.0011  XYZ=             -0.0006
 Hexadecapole moment (field-independent basis, Debye-Ang**3):
 XXXX=            -61.9605 YYYY=            -28.4329 ZZZZ=             -9.6634 XXXY=            -12.7126
 XXXZ=             -0.0077 YYYX=             -7.3116 YYYZ=             -0.0002 ZZZX=             -0.0010
 ZZZY=             -0.0001 XXYY=            -18.8902 XXZZ=            -11.9108 YYZZ=             -6.0209
 XXYZ=              0.0010 YYXZ=             -0.0012 ZZXY=             -1.7557
 N-N= 3.052551857067D+01 E-N=-3.285200908666D+02  KE= 1.133450330863D+02
  Exact polarizability:  26.785   9.343  21.617  -0.001   0.001   6.587
 Approx polarizability:  57.114  24.887  43.211   0.003  -0.002   8.720
 Calling FoFJK, ICntrl=    100127 FMM=F ISym2X=0 I1Cent= 0 IOpClX= 0 NMat=1 NMatS=1 NMatT=0.
 Full mass-weighted force constant matrix:
 Low frequencies ----1887.8730  -14.3548   -8.1606   -7.5628   -0.0014   -0.0009
 Low frequencies ---   -0.0003  782.5774  918.4590
 ******    1 imaginary frequencies (negative Signs) ****** 
 Diagonal vibrational polarizability:
       15.0337741      10.9931263       1.0409879
 Harmonic frequencies (cm**-1), IR intensities (KM/Mole), Raman scattering
 activities (A**4/AMU), depolarization ratios for plane and unpolarized
 incident light, reduced masses (AMU), force constants (mDyne/A),
 and normal coordinates:
                      1                      2                      3
                      A                      A                      A
 Frequencies --  -1887.8729               782.5773               918.4587
 Red. masses --      1.1987                 1.2810                 1.2325
 Frc consts  --      2.5171                 0.4622                 0.6126
 IR Inten    --    427.1172               268.2194                32.6314
  Atom  AN      X      Y      Z        X      Y      Z        X      Y      Z
     1   6    -0.07  -0.11   0.00    -0.01   0.12   0.00     0.00   0.00   0.13
     2   1     0.17   0.89   0.00    -0.03  -0.21   0.00     0.00   0.00  -0.97
     3   1     0.39   0.03   0.00     0.96  -0.05   0.00     0.00   0.00   0.18
     4   8     0.01   0.02   0.00    -0.05  -0.07   0.00     0.00   0.00  -0.05
                      4                      5                      6
                      A                      A                      A
 Frequencies --   1285.9031              1936.0523              3212.5622
 Red. masses --      1.1369                 5.5372                 1.1391
 Frc consts  --      1.1076                12.2286                 6.9267
 IR Inten    --    553.8170               268.7210                28.0757
  Atom  AN      X      Y      Z        X      Y      Z        X      Y      Z
     1   6     0.05   0.08   0.00     0.42  -0.18   0.00    -0.10   0.03   0.00
     2   1     0.09   0.27   0.00     0.72  -0.07   0.00     0.97  -0.20   0.00
     3   1    -0.16  -0.94   0.00     0.19   0.28   0.00    -0.07   0.01   0.00
     4   8    -0.03  -0.02   0.00    -0.37   0.12   0.00     0.02  -0.01   0.00

 -------------------
 - Thermochemistry -
 -------------------
 Temperature   298.150 Kelvin.  Pressure   1.00000 Atm.
 Atom     1 has atomic number  6 and mass  12.00000
 Atom     2 has atomic number  1 and mass   1.00783
 Atom     3 has atomic number  1 and mass   1.00783
 Atom     4 has atomic number  8 and mass  15.99491
 Molecular mass:    30.01056 amu.
 Principal axes and moments of inertia in atomic units:
                           1         2         3
     Eigenvalues --     7.17351  51.09245  58.26594
           X            0.99477   0.10218  -0.00007
           Y           -0.10218   0.99477   0.00016
           Z            0.00009  -0.00015   1.00000
 This molecule is an asymmetric top.
 Rotational symmetry number  1.
 Rotational temperatures (Kelvin)     12.07412     1.69524     1.48653
 Rotational constants (GHZ):         251.58424    35.32305    30.97420
    1 imaginary frequencies ignored.
 Zero-point vibrational energy      48661.4 (Joules/Mol)
                                   11.63036 (Kcal/Mol)
 Vibrational temperatures:   1125.95  1321.46  1850.13  2785.54  4622.15
          (Kelvin)
 
 Zero-point correction=                           0.018534 (Hartree/Particle)
 Thermal correction to Energy=                    0.021513
 Thermal correction to Enthalpy=                  0.022457
 Thermal correction to Gibbs Free Energy=        -0.003305
 Sum of electronic and zero-point Energies=           -114.339439
 Sum of electronic and thermal Energies=              -114.336460
 Sum of electronic and thermal Enthalpies=            -114.335516
 Sum of electronic and thermal Free Energies=         -114.361278
 
                     E (Thermal)             CV                S
                      KCal/Mol        Cal/Mol-Kelvin    Cal/Mol-Kelvin
 Total                   13.500              7.287             54.221
 Electronic               0.000              0.000              0.000
 Translational            0.889              2.981             36.130
 Rotational               0.889              2.981             17.708
 Vibrational             11.722              1.326              0.382
                       Q            Log10(Q)             Ln(Q)
 Total Bot       0.331158D+02          1.520035          3.500011
 Total V=0       0.110952D+11         10.045137         23.129782
 Vib (Bot)       0.309793D-08         -8.508929        -19.592533
 Vib (V=0)       0.103794D+01          0.016172          0.037238
 Electronic      0.100000D+01          0.000000          0.000000
 Translational   0.646199D+07          6.810366         15.681448
 Rotational      0.165424D+04          3.218598          7.411096
 ***** Axes restored to original set *****
 -------------------------------------------------------------------
 Center     Atomic                   Forces (Hartrees/Bohr)
 Number     Number              X              Y              Z
 -------------------------------------------------------------------
      1        6          -0.000077514   -0.000054632    0.000107023
      2        1           0.000031211    0.000048387   -0.000066711
      3        1          -0.000016720   -0.000020493    0.000012563
      4        8           0.000063023    0.000026737   -0.000052875
 -------------------------------------------------------------------
 Cartesian Forces:  Max     0.000107023 RMS     0.000055191
 FormGI is forming the generalized inverse of G from B-inverse, IUseBI=4.

 GradGradGradGradGradGradGradGradGradGradGradGradGradGradGradGradGradGrad
 Berny optimization.
 Internal  Forces:  Max     0.000061376 RMS     0.000034237
 Search for a saddle point.
 Step number   1 out of a maximum of    2
 All quantities printed in internal units (Hartrees-Bohrs-Radians)
 Swapping is turned off.
 Second derivative matrix not updated -- analytic derivatives used.
 The second derivative matrix:
                          R1        R2        R3        R4        A1
           R1           0.34294
           R2          -0.04157  -0.01026
           R3           0.00261   0.05660   1.04762
           R4           0.03331   0.03164  -0.01196  -0.00050
           A1           0.02928   0.01946  -0.02702  -0.01233  -0.01347
           A2           0.05280   0.04483  -0.00677  -0.04394  -0.03845
           A3           0.02352   0.02537   0.02024  -0.03161  -0.02498
           D1          -0.00029  -0.00023   0.00006   0.00021   0.00019
           D2           0.00016   0.00017  -0.00005  -0.00018  -0.00015
                          A2        A3        D1        D2
           A2          -0.00299
           A3           0.03546   0.06044
           D1           0.00002  -0.00017   0.00077
           D2          -0.00014   0.00002   0.00220   0.00630
 ITU=  0
     Eigenvalues ---   -0.12298   0.00707   0.02522   0.11099   0.35866
     Eigenvalues ---    1.05188
 Eigenvectors required to have negative eigenvalues:
                          A2        R2        R4        A1        R1
   1                    0.54081  -0.52731   0.45509   0.41919  -0.17359
                          A3        R3        D1        D2
   1                    0.12161   0.04123  -0.00275   0.00266
 Angle between quadratic step and forces=  65.91 degrees.
 Linear search not attempted -- option 19 set.
 Iteration  1 RMS(Cart)=  0.00060313 RMS(Int)=  0.00000137
 Iteration  2 RMS(Cart)=  0.00000096 RMS(Int)=  0.00000081
 Variable       Old X    -DE/DX   Delta X   Delta X   Delta X     New X
                                 (Linear)    (Quad)   (Total)
    R1        2.06484  -0.00002   0.00000   0.00003   0.00003   2.06487
    R2        3.25718   0.00001   0.00000   0.00117   0.00117   3.25835
    R3        2.20698   0.00004   0.00000  -0.00003  -0.00003   2.20694
    R4        2.54947   0.00002   0.00000   0.00037   0.00037   2.54984
    A1        0.89890   0.00001   0.00000  -0.00026  -0.00026   0.89864
    A2        2.86448   0.00006   0.00000   0.00013   0.00013   2.86461
    A3        1.96559   0.00005   0.00000   0.00038   0.00038   1.96597
    D1       -3.13994  -0.00001   0.00000  -0.00165  -0.00165   3.14159
    D2        0.00472  -0.00003   0.00000  -0.00472  -0.00472  -0.00001
         Item               Value     Threshold  Converged?
 Maximum Force            0.000061     0.000450     YES
 RMS     Force            0.000034     0.000300     YES
 Maximum Displacement     0.001013     0.001800     YES
 RMS     Displacement     0.000604     0.001200     YES
 Predicted change in Energy=-1.084270D-07
 Optimization completed.
    -- Stationary point found.
                           ----------------------------
                           !   Optimized Parameters   !
                           ! (Angstroms and Degrees)  !
 --------------------------                            --------------------------
 ! Name  Definition              Value          Derivative Info.                !
 --------------------------------------------------------------------------------
 ! R1    R(1,2)                  1.0927         -DE/DX =    0.0                 !
 ! R2    R(1,3)                  1.7236         -DE/DX =    0.0                 !
 ! R3    R(1,4)                  1.1679         -DE/DX =    0.0                 !
 ! R4    R(2,3)                  1.3491         -DE/DX =    0.0                 !
 ! A1    A(2,1,3)               51.5029         -DE/DX =    0.0                 !
 ! A2    A(2,1,4)              164.1226         -DE/DX =    0.0001              !
 ! A3    A(3,1,4)              112.6199         -DE/DX =    0.0001              !
 ! D1    D(2,1,3,4)            180.0944         -DE/DX =    0.0                 !
 ! D2    D(2,1,4,3)              0.2702         -DE/DX =    0.0                 !
 --------------------------------------------------------------------------------
 GradGradGradGradGradGradGradGradGradGradGradGradGradGradGradGradGradGrad

 1|1|UNPC-CBEGRAD02|Freq|RB3LYP|6-31G(d)|C1H2O1|GPD20001|01-Dec-2021|0|
 |#N Geom=AllCheck Guess=TCheck SCRF=Check GenChk RB3LYP/6-31G(d) Freq|
 |reagents||0,1|C,-0.4638011852,0.2522788491,-0.0027957114|H,-1.5187286
 06,0.5369646922,-0.0035524851|H,-1.8511224646,-0.7705428169,0.00464966
 39|O,0.5374850658,-0.3488476944,0.0016985326||Version=EM64W-G09RevD.01
 |State=1-A|HF=-114.3579731|RMSD=9.403e-010|RMSF=5.519e-005|ZeroPoint=0
 .0185342|Thermal=0.0215133|Dipole=-0.1466338,0.7514729,-0.005007|Dipol
 eDeriv=1.5796558,0.0446126,-0.0003989,-0.416513,-0.4869136,0.004637,0.
 003224,0.0055992,0.2037663,0.2946226,0.2161772,-0.0018104,-0.0768684,0
 .6361323,-0.002821,0.0004264,-0.0030507,0.2024732,-0.6838911,-0.064715
 ,0.0006143,-0.2203159,-0.4138929,0.0013652,0.0016372,0.0009186,-0.2272
 394,-1.1903873,-0.1960748,0.001595,0.7136973,0.2646742,-0.0031812,-0.0
 052876,-0.0034671,-0.1790001|Polar=30.7063373,7.186652,17.6952759,-0.0
 537912,-0.0784571,6.5872033|PG=C01 [X(C1H2O1)]|NImag=1||0.81575019,-0.
 69259392,0.34633508,0.00490599,-0.00180664,0.06430665,-0.21103171,0.19
 397010,-0.00118146,0.27877142,0.24470044,0.03419687,-0.00073734,-0.168
 66577,-0.01178521,-0.00135085,-0.00068629,-0.04002106,0.00085742,0.000
 38023,0.02490760,0.08741979,0.01980558,-0.00018223,-0.03696930,-0.0373
 2582,0.00026306,0.00907862,-0.03192364,-0.06875101,0.00056324,0.007058
 89,-0.00982484,0.00002903,0.01715233,0.04573617,0.00004539,0.00044684,
 0.00749093,0.00003381,0.00011760,-0.00466191,-0.00008088,-0.00032696,0
 .00086682,-0.69213826,0.47881823,-0.00354230,-0.03077040,-0.03870885,0
 .00023037,-0.05952910,0.00771242,0.00000168,0.78243776,0.47981711,-0.3
 1178094,0.00198074,-0.03236322,-0.01258683,0.00027704,0.00036790,0.032
 83968,-0.00023748,-0.44782180,0.29152810,-0.00360052,0.00204609,-0.031
 77652,0.00029022,0.00023951,0.01977537,0.00000005,-0.00026531,-0.00369
 584,0.00331025,-0.00202029,0.01569698||0.00007751,0.00005463,-0.000107
 02,-0.00003121,-0.00004839,0.00006671,0.00001672,0.00002049,-0.0000125
 6,-0.00006302,-0.00002674,0.00005288|||@


 QED = W**5 (WHICH WAS WHAT WE WANTED)
 Job cpu time:       0 days  0 hours  0 minutes 22.0 seconds.
 File lengths (MBytes):  RWF=      5 Int=      0 D2E=      0 Chk=      1 Scr=      1
 Normal termination of Gaussian 09 at Wed Dec 01 10:32:48 2021.
