 Entering Link 1 = C:\G09W\l1.exe PID=      7332.
  
 Copyright (c) 1988,1990,1992,1993,1995,1998,2003,2009,2013,
            Gaussian, Inc.  All Rights Reserved.
  
 This is part of the Gaussian(R) 09 program.  It is based on
 the Gaussian(R) 03 system (copyright 2003, Gaussian, Inc.),
 the Gaussian(R) 98 system (copyright 1998, Gaussian, Inc.),
 the Gaussian(R) 94 system (copyright 1995, Gaussian, Inc.),
 the Gaussian 92(TM) system (copyright 1992, Gaussian, Inc.),
 the Gaussian 90(TM) system (copyright 1990, Gaussian, Inc.),
 the Gaussian 88(TM) system (copyright 1988, Gaussian, Inc.),
 the Gaussian 86(TM) system (copyright 1986, Carnegie Mellon
 University), and the Gaussian 82(TM) system (copyright 1983,
 Carnegie Mellon University). Gaussian is a federally registered
 trademark of Gaussian, Inc.
  
 This software contains proprietary and confidential information,
 including trade secrets, belonging to Gaussian, Inc.
  
 This software is provided under written license and may be
 used, copied, transmitted, or stored only in accord with that
 written license.
  
 The following legend is applicable only to US Government
 contracts under FAR:
  
                    RESTRICTED RIGHTS LEGEND
  
 Use, reproduction and disclosure by the US Government is
 subject to restrictions as set forth in subparagraphs (a)
 and (c) of the Commercial Computer Software - Restricted
 Rights clause in FAR 52.227-19.
  
 Gaussian, Inc.
 340 Quinnipiac St., Bldg. 40, Wallingford CT 06492
  
  
 ---------------------------------------------------------------
 Warning -- This program may not be used in any manner that
 competes with the business of Gaussian, Inc. or will provide
 assistance to any competitor of Gaussian, Inc.  The licensee
 of this program is prohibited from giving any competitor of
 Gaussian, Inc. access to this program.  By using this program,
 the user acknowledges that Gaussian, Inc. is engaged in the
 business of creating and licensing software in the field of
 computational chemistry and represents and warrants to the
 licensee that it is not a competitor of Gaussian, Inc. and that
 it will not use this program in any manner prohibited above.
 ---------------------------------------------------------------
  

 Cite this work as:
 Gaussian 09, Revision D.01,
 M. J. Frisch, G. W. Trucks, H. B. Schlegel, G. E. Scuseria, 
 M. A. Robb, J. R. Cheeseman, G. Scalmani, V. Barone, B. Mennucci, 
 G. A. Petersson, H. Nakatsuji, M. Caricato, X. Li, H. P. Hratchian, 
 A. F. Izmaylov, J. Bloino, G. Zheng, J. L. Sonnenberg, M. Hada, 
 M. Ehara, K. Toyota, R. Fukuda, J. Hasegawa, M. Ishida, T. Nakajima, 
 Y. Honda, O. Kitao, H. Nakai, T. Vreven, J. A. Montgomery, Jr., 
 J. E. Peralta, F. Ogliaro, M. Bearpark, J. J. Heyd, E. Brothers, 
 K. N. Kudin, V. N. Staroverov, T. Keith, R. Kobayashi, J. Normand, 
 K. Raghavachari, A. Rendell, J. C. Burant, S. S. Iyengar, J. Tomasi, 
 M. Cossi, N. Rega, J. M. Millam, M. Klene, J. E. Knox, J. B. Cross, 
 V. Bakken, C. Adamo, J. Jaramillo, R. Gomperts, R. E. Stratmann, 
 O. Yazyev, A. J. Austin, R. Cammi, C. Pomelli, J. W. Ochterski, 
 R. L. Martin, K. Morokuma, V. G. Zakrzewski, G. A. Voth, 
 P. Salvador, J. J. Dannenberg, S. Dapprich, A. D. Daniels, 
 O. Farkas, J. B. Foresman, J. V. Ortiz, J. Cioslowski, 
 and D. J. Fox, Gaussian, Inc., Wallingford CT, 2013.
 
 ******************************************
 Gaussian 09:  EM64W-G09RevD.01 13-Apr-2013
                10-Dec-2021 
 ******************************************
 -------------------------
 # opt freq b3lyp/6-31g(d)
 -------------------------
 1/14=-1,18=20,19=15,26=3,38=1/1,3;
 2/9=110,12=2,17=6,18=5,40=1/2;
 3/5=1,6=6,7=1,11=2,16=1,25=1,30=1,71=1,74=-5/1,2,3;
 4//1;
 5/5=2,38=5/2;
 6/7=2,8=2,9=2,10=2,28=1/1;
 7//1,2,3,16;
 1/14=-1,18=20,19=15,26=3/3(2);
 2/9=110/2;
 99//99;
 2/9=110/2;
 3/5=1,6=6,7=1,11=2,16=1,25=1,30=1,71=1,74=-5/1,2,3;
 4/5=5,16=3,69=1/1;
 5/5=2,38=5/2;
 7//1,2,3,16;
 1/14=-1,18=20,19=15,26=3/3(-5);
 2/9=110/2;
 6/7=2,8=2,9=2,10=2,19=2,28=1/1;
 99/9=1/99;
 -----------------
 C2H6 - opt + freq
 -----------------
 Symbolic Z-matrix:
 Charge =  0 Multiplicity = 1
 C                     0.        0.       -0.77 
 H                     0.        1.00881  -1.12667 
 H                    -0.87365  -0.5044   -1.12667 
 H                     0.87365  -0.5044   -1.12667 
 C                     0.        0.        0.77 
 H                    -0.87365   0.5044    1.12667 
 H                     0.       -1.00881   1.12667 
 H                     0.87365   0.5044    1.12667 
 

 GradGradGradGradGradGradGradGradGradGradGradGradGradGradGradGradGradGrad
 Berny optimization.
 Initialization pass.
                           ----------------------------
                           !    Initial Parameters    !
                           ! (Angstroms and Degrees)  !
 --------------------------                            --------------------------
 ! Name  Definition              Value          Derivative Info.                !
 --------------------------------------------------------------------------------
 ! R1    R(1,2)                  1.07           estimate D2E/DX2                !
 ! R2    R(1,3)                  1.07           estimate D2E/DX2                !
 ! R3    R(1,4)                  1.07           estimate D2E/DX2                !
 ! R4    R(1,5)                  1.54           estimate D2E/DX2                !
 ! R5    R(5,6)                  1.07           estimate D2E/DX2                !
 ! R6    R(5,7)                  1.07           estimate D2E/DX2                !
 ! R7    R(5,8)                  1.07           estimate D2E/DX2                !
 ! A1    A(2,1,3)              109.4712         estimate D2E/DX2                !
 ! A2    A(2,1,4)              109.4712         estimate D2E/DX2                !
 ! A3    A(2,1,5)              109.4712         estimate D2E/DX2                !
 ! A4    A(3,1,4)              109.4712         estimate D2E/DX2                !
 ! A5    A(3,1,5)              109.4712         estimate D2E/DX2                !
 ! A6    A(4,1,5)              109.4712         estimate D2E/DX2                !
 ! A7    A(1,5,6)              109.4712         estimate D2E/DX2                !
 ! A8    A(1,5,7)              109.4712         estimate D2E/DX2                !
 ! A9    A(1,5,8)              109.4712         estimate D2E/DX2                !
 ! A10   A(6,5,7)              109.4712         estimate D2E/DX2                !
 ! A11   A(6,5,8)              109.4712         estimate D2E/DX2                !
 ! A12   A(7,5,8)              109.4712         estimate D2E/DX2                !
 ! D1    D(2,1,5,6)             60.0            estimate D2E/DX2                !
 ! D2    D(2,1,5,7)            180.0            estimate D2E/DX2                !
 ! D3    D(2,1,5,8)            -60.0            estimate D2E/DX2                !
 ! D4    D(3,1,5,6)            -60.0            estimate D2E/DX2                !
 ! D5    D(3,1,5,7)             60.0            estimate D2E/DX2                !
 ! D6    D(3,1,5,8)            180.0            estimate D2E/DX2                !
 ! D7    D(4,1,5,6)            180.0            estimate D2E/DX2                !
 ! D8    D(4,1,5,7)            -60.0            estimate D2E/DX2                !
 ! D9    D(4,1,5,8)             60.0            estimate D2E/DX2                !
 --------------------------------------------------------------------------------
 Trust Radius=3.00D-01 FncErr=1.00D-07 GrdErr=1.00D-06
 Number of steps in this run=     38 maximum allowed number of steps=    100.
 GradGradGradGradGradGradGradGradGradGradGradGradGradGradGradGradGradGrad

                          Input orientation:                          
 ---------------------------------------------------------------------
 Center     Atomic      Atomic             Coordinates (Angstroms)
 Number     Number       Type             X           Y           Z
 ---------------------------------------------------------------------
      1          6           0        0.000000    0.000000   -0.770000
      2          1           0        0.000000    1.008806   -1.126666
      3          1           0       -0.873651   -0.504403   -1.126666
      4          1           0        0.873651   -0.504403   -1.126666
      5          6           0        0.000000    0.000000    0.770000
      6          1           0       -0.873651    0.504403    1.126666
      7          1           0        0.000000   -1.008806    1.126666
      8          1           0        0.873651    0.504403    1.126666
 ---------------------------------------------------------------------
                    Distance matrix (angstroms):
                    1          2          3          4          5
     1  C    0.000000
     2  H    1.070000   0.000000
     3  H    1.070000   1.747303   0.000000
     4  H    1.070000   1.747303   1.747303   0.000000
     5  C    1.540000   2.148263   2.148263   2.148263   0.000000
     6  H    2.148263   2.468845   2.468845   3.024610   1.070000
     7  H    2.148263   3.024610   2.468845   2.468845   1.070000
     8  H    2.148263   2.468845   3.024610   2.468845   1.070000
                    6          7          8
     6  H    0.000000
     7  H    1.747303   0.000000
     8  H    1.747303   1.747303   0.000000
 Stoichiometry    C2H6
 Framework group  D3D[C3(C.C),3SGD(H2)]
 Deg. of freedom     3
 Full point group                 D3D     NOp  12
 Largest Abelian subgroup         C2H     NOp   4
 Largest concise Abelian subgroup C2H     NOp   4
                         Standard orientation:                         
 ---------------------------------------------------------------------
 Center     Atomic      Atomic             Coordinates (Angstroms)
 Number     Number       Type             X           Y           Z
 ---------------------------------------------------------------------
      1          6           0        0.000000    0.000000    0.770000
      2          1           0        0.000000    1.008806    1.126666
      3          1           0        0.873651   -0.504403    1.126666
      4          1           0       -0.873651   -0.504403    1.126666
      5          6           0        0.000000    0.000000   -0.770000
      6          1           0        0.873651    0.504403   -1.126666
      7          1           0        0.000000   -1.008806   -1.126666
      8          1           0       -0.873651    0.504403   -1.126666
 ---------------------------------------------------------------------
 Rotational constants (GHZ):     82.1231618     20.2293890     20.2293890
 Standard basis: 6-31G(d) (6D, 7F)
 There are    15 symmetry adapted cartesian basis functions of AG  symmetry.
 There are     6 symmetry adapted cartesian basis functions of BG  symmetry.
 There are     6 symmetry adapted cartesian basis functions of AU  symmetry.
 There are    15 symmetry adapted cartesian basis functions of BU  symmetry.
 There are    15 symmetry adapted basis functions of AG  symmetry.
 There are     6 symmetry adapted basis functions of BG  symmetry.
 There are     6 symmetry adapted basis functions of AU  symmetry.
 There are    15 symmetry adapted basis functions of BU  symmetry.
    42 basis functions,    80 primitive gaussians,    42 cartesian basis functions
     9 alpha electrons        9 beta electrons
       nuclear repulsion energy        42.6703235489 Hartrees.
 NAtoms=    8 NActive=    8 NUniq=    2 SFac= 4.00D+00 NAtFMM=   60 NAOKFM=F Big=F
 Integral buffers will be    131072 words long.
 Raffenetti 2 integral format.
 Two-electron integral symmetry is turned on.
 One-electron integrals computed using PRISM.
 NBasis=    42 RedAO= T EigKep=  7.73D-03  NBF=    15     6     6    15
 NBsUse=    42 1.00D-06 EigRej= -1.00D+00 NBFU=    15     6     6    15
 ExpMin= 1.61D-01 ExpMax= 3.05D+03 ExpMxC= 4.57D+02 IAcc=1 IRadAn=         1 AccDes= 0.00D+00
 Harris functional with IExCor=  402 and IRadAn=       1 diagonalized for initial guess.
 HarFok:  IExCor=  402 AccDes= 0.00D+00 IRadAn=         1 IDoV= 1 UseB2=F ITyADJ=14
 ICtDFT=  3500011 ScaDFX=  1.000000  1.000000  1.000000  1.000000
 FoFCou: FMM=F IPFlag=           0 FMFlag=      100000 FMFlg1=           0
         NFxFlg=           0 DoJE=T BraDBF=F KetDBF=T FulRan=T
         wScrn=  0.000000 ICntrl=     500 IOpCl=  0 I1Cent=   200000004 NGrid=           0
         NMat0=    1 NMatS0=      1 NMatT0=    0 NMatD0=    1 NMtDS0=    0 NMtDT0=    0
 Petite list used in FoFCou.
 Initial guess orbital symmetries:
       Occupied  (A1G) (A2U) (A1G) (A2U) (EU) (EU) (A1G) (EG) (EG)
       Virtual   (A1G) (A2U) (EU) (EU) (EG) (EG) (A2U) (A1G) (EU)
                 (EU) (EG) (EG) (A2U) (EU) (EU) (A1G) (EG) (EG)
                 (A2U) (A1G) (EU) (EU) (A2U) (A1G) (EG) (EG) (EU)
                 (EU) (EG) (EG) (A2U) (A1G) (A2U)
 The electronic state of the initial guess is 1-A1G.
 Keep R1 ints in memory in symmetry-blocked form, NReq=1296348.
 Requested convergence on RMS density matrix=1.00D-08 within 128 cycles.
 Requested convergence on MAX density matrix=1.00D-06.
 Requested convergence on             energy=1.00D-06.
 No special actions if energy rises.
 Integral accuracy reduced to 1.0D-05 until final iterations.
 Initial convergence to 1.0D-05 achieved.  Increase integral accuracy.
 SCF Done:  E(RB3LYP) =  -79.8270641879     A.U. after    9 cycles
            NFock=  9  Conv=0.66D-08     -V/T= 2.0082

 **********************************************************************

            Population analysis using the SCF density.

 **********************************************************************

 Orbital symmetries:
       Occupied  (A1G) (A2U) (A1G) (A2U) (EU) (EU) (A1G) (EG) (EG)
       Virtual   (A1G) (A2U) (EU) (EU) (EG) (EG) (A2U) (A1G) (EU)
                 (EU) (EG) (EG) (A2U) (EU) (EU) (A1G) (EG) (EG)
                 (A2U) (A1G) (A2U) (EU) (EU) (A1G) (EG) (EG) (EU)
                 (EU) (EG) (EG) (A2U) (A1G) (A2U)
 The electronic state is 1-A1G.
 Alpha  occ. eigenvalues --  -10.16282 -10.16262  -0.75194  -0.61559  -0.43766
 Alpha  occ. eigenvalues --   -0.43766  -0.35191  -0.34644  -0.34644
 Alpha virt. eigenvalues --    0.10698   0.16637   0.17652   0.17652   0.19262
 Alpha virt. eigenvalues --    0.19262   0.23680   0.51133   0.54381   0.54381
 Alpha virt. eigenvalues --    0.62002   0.62002   0.66777   0.90393   0.90393
 Alpha virt. eigenvalues --    0.92618   0.94445   0.94445   1.01225   1.07871
 Alpha virt. eigenvalues --    1.44682   1.51648   1.51648   1.94397   2.01418
 Alpha virt. eigenvalues --    2.01418   2.31495   2.31495   2.32823   2.32823
 Alpha virt. eigenvalues --    2.59401   4.16208   4.37737
          Condensed to atoms (all electrons):
               1          2          3          4          5          6
     1  C    5.009659   0.387596   0.387596   0.387596   0.377964  -0.036269
     2  H    0.387596   0.567243  -0.031519  -0.031519  -0.036269  -0.003945
     3  H    0.387596  -0.031519   0.567243  -0.031519  -0.036269  -0.003945
     4  H    0.387596  -0.031519  -0.031519   0.567243  -0.036269   0.005159
     5  C    0.377964  -0.036269  -0.036269  -0.036269   5.009659   0.387596
     6  H   -0.036269  -0.003945  -0.003945   0.005159   0.387596   0.567243
     7  H   -0.036269   0.005159  -0.003945  -0.003945   0.387596  -0.031519
     8  H   -0.036269  -0.003945   0.005159  -0.003945   0.387596  -0.031519
               7          8
     1  C   -0.036269  -0.036269
     2  H    0.005159  -0.003945
     3  H   -0.003945   0.005159
     4  H   -0.003945  -0.003945
     5  C    0.387596   0.387596
     6  H   -0.031519  -0.031519
     7  H    0.567243  -0.031519
     8  H   -0.031519   0.567243
 Mulliken charges:
               1
     1  C   -0.441603
     2  H    0.147201
     3  H    0.147201
     4  H    0.147201
     5  C   -0.441603
     6  H    0.147201
     7  H    0.147201
     8  H    0.147201
 Sum of Mulliken charges =   0.00000
 Mulliken charges with hydrogens summed into heavy atoms:
               1
     1  C    0.000000
     5  C    0.000000
 Electronic spatial extent (au):  <R**2>=            107.4437
 Charge=              0.0000 electrons
 Dipole moment (field-independent basis, Debye):
    X=              0.0000    Y=              0.0000    Z=              0.0000  Tot=              0.0000
 Quadrupole moment (field-independent basis, Debye-Ang):
   XX=            -14.5050   YY=            -14.5050   ZZ=            -15.4202
   XY=              0.0000   XZ=              0.0000   YZ=              0.0000
 Traceless Quadrupole moment (field-independent basis, Debye-Ang):
   XX=              0.3051   YY=              0.3051   ZZ=             -0.6102
   XY=              0.0000   XZ=              0.0000   YZ=              0.0000
 Octapole moment (field-independent basis, Debye-Ang**2):
  XXX=              0.0000  YYY=              0.0000  ZZZ=              0.0000  XYY=              0.0000
  XXY=              0.0000  XXZ=              0.0000  XZZ=              0.0000  YZZ=              0.0000
  YYZ=              0.0000  XYZ=              0.0000
 Hexadecapole moment (field-independent basis, Debye-Ang**3):
 XXXX=            -27.6383 YYYY=            -27.6383 ZZZZ=            -90.8833 XXXY=              0.0000
 XXXZ=              0.0000 YYYX=              0.0000 YYYZ=              1.1107 ZZZX=              0.0000
 ZZZY=              0.0000 XXYY=             -9.2128 XXZZ=            -18.7264 YYZZ=            -18.7264
 XXYZ=             -1.1107 YYXZ=              0.0000 ZZXY=              0.0000
 N-N= 4.267032354889D+01 E-N=-2.693008023755D+02  KE= 7.917888860919D+01
 Symmetry AG   KE= 3.897069918382D+01
 Symmetry BG   KE= 2.135020133135D+00
 Symmetry AU   KE= 1.840609085766D+00
 Symmetry BU   KE= 3.623256020647D+01
 Calling FoFJK, ICntrl=      2127 FMM=F ISym2X=1 I1Cent= 0 IOpClX= 0 NMat=1 NMatS=1 NMatT=0.
 ***** Axes restored to original set *****
 -------------------------------------------------------------------
 Center     Atomic                   Forces (Hartrees/Bohr)
 Number     Number              X              Y              Z
 -------------------------------------------------------------------
      1        6           0.000000000    0.000000000    0.026130969
      2        1           0.000000000    0.015227437   -0.009804245
      3        1          -0.013187347   -0.007613719   -0.009804245
      4        1           0.013187347   -0.007613719   -0.009804245
      5        6           0.000000000    0.000000000   -0.026130969
      6        1          -0.013187347    0.007613719    0.009804245
      7        1           0.000000000   -0.015227437    0.009804245
      8        1           0.013187347    0.007613719    0.009804245
 -------------------------------------------------------------------
 Cartesian Forces:  Max     0.026130969 RMS     0.011785661

 GradGradGradGradGradGradGradGradGradGradGradGradGradGradGradGradGradGrad
 Berny optimization.
 FormGI is forming the generalized inverse of G from B-inverse, IUseBI=4.
 Internal  Forces:  Max     0.017624646 RMS     0.008634628
 Search for a local minimum.
 Step number   1 out of a maximum of   38
 All quantities printed in internal units (Hartrees-Bohrs-Radians)
 Mixed Optimization -- RFO/linear search
 Second derivative matrix not updated -- first step.
 ITU=  0
     Eigenvalues ---    0.00237   0.05720   0.05720   0.05720   0.05720
     Eigenvalues ---    0.16000   0.16000   0.16000   0.16000   0.16000
     Eigenvalues ---    0.16000   0.28519   0.37230   0.37230   0.37230
     Eigenvalues ---    0.37230   0.37230   0.37230
 RFO step:  Lambda=-6.24206013D-03 EMin= 2.36824915D-03
 Linear search not attempted -- first point.
 Iteration  1 RMS(Cart)=  0.03433303 RMS(Int)=  0.00037225
 Iteration  2 RMS(Cart)=  0.00040130 RMS(Int)=  0.00021283
 Iteration  3 RMS(Cart)=  0.00000021 RMS(Int)=  0.00021283
 ClnCor:  largest displacement from symmetrization is 1.14D-13 for atom     6.
 Variable       Old X    -DE/DX   Delta X   Delta X   Delta X     New X
                                 (Linear)    (Quad)   (Total)
    R1        2.02201   0.01762   0.00000   0.04656   0.04656   2.06857
    R2        2.02201   0.01762   0.00000   0.04656   0.04656   2.06857
    R3        2.02201   0.01762   0.00000   0.04656   0.04656   2.06857
    R4        2.91018   0.00328   0.00000   0.01126   0.01126   2.92144
    R5        2.02201   0.01762   0.00000   0.04656   0.04656   2.06857
    R6        2.02201   0.01762   0.00000   0.04656   0.04656   2.06857
    R7        2.02201   0.01762   0.00000   0.04656   0.04656   2.06857
    A1        1.91063  -0.00421   0.00000  -0.02535  -0.02566   1.88497
    A2        1.91063  -0.00421   0.00000  -0.02535  -0.02566   1.88497
    A3        1.91063   0.00421   0.00000   0.02535   0.02501   1.93565
    A4        1.91063  -0.00421   0.00000  -0.02535  -0.02566   1.88497
    A5        1.91063   0.00421   0.00000   0.02535   0.02501   1.93565
    A6        1.91063   0.00421   0.00000   0.02535   0.02501   1.93565
    A7        1.91063   0.00421   0.00000   0.02535   0.02501   1.93565
    A8        1.91063   0.00421   0.00000   0.02535   0.02501   1.93565
    A9        1.91063   0.00421   0.00000   0.02535   0.02501   1.93565
   A10        1.91063  -0.00421   0.00000  -0.02535  -0.02566   1.88497
   A11        1.91063  -0.00421   0.00000  -0.02535  -0.02566   1.88497
   A12        1.91063  -0.00421   0.00000  -0.02535  -0.02566   1.88497
    D1        1.04720   0.00000   0.00000   0.00000   0.00000   1.04720
    D2        3.14159   0.00000   0.00000   0.00000   0.00000   3.14159
    D3       -1.04720   0.00000   0.00000   0.00000   0.00000  -1.04720
    D4       -1.04720   0.00000   0.00000   0.00000   0.00000  -1.04720
    D5        1.04720   0.00000   0.00000   0.00000   0.00000   1.04720
    D6        3.14159   0.00000   0.00000   0.00000   0.00000   3.14159
    D7        3.14159   0.00000   0.00000   0.00000   0.00000   3.14159
    D8       -1.04720   0.00000   0.00000   0.00000   0.00000  -1.04720
    D9        1.04720   0.00000   0.00000   0.00000   0.00000   1.04720
         Item               Value     Threshold  Converged?
 Maximum Force            0.017625     0.000450     NO 
 RMS     Force            0.008635     0.000300     NO 
 Maximum Displacement     0.069711     0.001800     NO 
 RMS     Displacement     0.034481     0.001200     NO 
 Predicted change in Energy=-3.185964D-03
 GradGradGradGradGradGradGradGradGradGradGradGradGradGradGradGradGradGrad

                          Input orientation:                          
 ---------------------------------------------------------------------
 Center     Atomic      Atomic             Coordinates (Angstroms)
 Number     Number       Type             X           Y           Z
 ---------------------------------------------------------------------
      1          6           0        0.000000    0.000000   -0.772979
      2          1           0        0.000000    1.022586   -1.163556
      3          1           0       -0.885586   -0.511293   -1.163556
      4          1           0        0.885586   -0.511293   -1.163556
      5          6           0        0.000000    0.000000    0.772979
      6          1           0       -0.885586    0.511293    1.163556
      7          1           0        0.000000   -1.022586    1.163556
      8          1           0        0.885586    0.511293    1.163556
 ---------------------------------------------------------------------
                    Distance matrix (angstroms):
                    1          2          3          4          5
     1  C    0.000000
     2  H    1.094638   0.000000
     3  H    1.094638   1.771171   0.000000
     4  H    1.094638   1.771171   1.771171   0.000000
     5  C    1.545959   2.189943   2.189943   2.189943   0.000000
     6  H    2.189943   2.541876   2.541876   3.098093   1.094638
     7  H    2.189943   3.098093   2.541876   2.541876   1.094638
     8  H    2.189943   2.541876   3.098093   2.541876   1.094638
                    6          7          8
     6  H    0.000000
     7  H    1.771171   0.000000
     8  H    1.771171   1.771171   0.000000
 Stoichiometry    C2H6
 Framework group  D3D[C3(C.C),3SGD(H2)]
 Deg. of freedom     3
 Full point group                 D3D     NOp  12
 Largest Abelian subgroup         C2H     NOp   4
 Largest concise Abelian subgroup C2H     NOp   4
                         Standard orientation:                         
 ---------------------------------------------------------------------
 Center     Atomic      Atomic             Coordinates (Angstroms)
 Number     Number       Type             X           Y           Z
 ---------------------------------------------------------------------
      1          6           0        0.000000    0.000000    0.772979
      2          1           0        0.000000    1.022586    1.163556
      3          1           0        0.885586   -0.511293    1.163556
      4          1           0       -0.885586   -0.511293    1.163556
      5          6           0        0.000000    0.000000   -0.772979
      6          1           0        0.885586    0.511293   -1.163556
      7          1           0        0.000000   -1.022586   -1.163556
      8          1           0       -0.885586    0.511293   -1.163556
 ---------------------------------------------------------------------
 Rotational constants (GHZ):     79.9246878     19.6735349     19.6735349
 Standard basis: 6-31G(d) (6D, 7F)
 There are    15 symmetry adapted cartesian basis functions of AG  symmetry.
 There are     6 symmetry adapted cartesian basis functions of BG  symmetry.
 There are     6 symmetry adapted cartesian basis functions of AU  symmetry.
 There are    15 symmetry adapted cartesian basis functions of BU  symmetry.
 There are    15 symmetry adapted basis functions of AG  symmetry.
 There are     6 symmetry adapted basis functions of BG  symmetry.
 There are     6 symmetry adapted basis functions of AU  symmetry.
 There are    15 symmetry adapted basis functions of BU  symmetry.
    42 basis functions,    80 primitive gaussians,    42 cartesian basis functions
     9 alpha electrons        9 beta electrons
       nuclear repulsion energy        41.9792425186 Hartrees.
 NAtoms=    8 NActive=    8 NUniq=    2 SFac= 4.00D+00 NAtFMM=   60 NAOKFM=F Big=F
 Integral buffers will be    131072 words long.
 Raffenetti 2 integral format.
 Two-electron integral symmetry is turned on.
 One-electron integrals computed using PRISM.
 NBasis=    42 RedAO= T EigKep=  8.40D-03  NBF=    15     6     6    15
 NBsUse=    42 1.00D-06 EigRej= -1.00D+00 NBFU=    15     6     6    15
 Initial guess from the checkpoint file:  "C:\Work\Gau-7332.chk"
 B after Tr=     0.000000    0.000000    0.000000
         Rot=    1.000000    0.000000    0.000000    0.000000 Ang=   0.00 deg.
 Initial guess orbital symmetries:
       Occupied  (A1G) (A2U) (A1G) (A2U) (EU) (EU) (A1G) (EG) (EG)
       Virtual   (A2U) (A2U) (A2U) (A2U) (A2U) (A2U) (A2U) (A2U)
                 (A2U) (A2U) (A2U) (A2U) (A2U) (A2U) (A2U) (A2U)
                 (?A) (?A) (?A) (?A) (?A) (?A) (?A) (?A) (?A) (?A)
                 (?A) (?A) (?A) (?A) (?A) (?A) (?A)
 ExpMin= 1.61D-01 ExpMax= 3.05D+03 ExpMxC= 4.57D+02 IAcc=1 IRadAn=         1 AccDes= 0.00D+00
 Harris functional with IExCor=  402 and IRadAn=       1 diagonalized for initial guess.
 HarFok:  IExCor=  402 AccDes= 0.00D+00 IRadAn=         1 IDoV= 1 UseB2=F ITyADJ=14
 ICtDFT=  3500011 ScaDFX=  1.000000  1.000000  1.000000  1.000000
 FoFCou: FMM=F IPFlag=           0 FMFlag=      100000 FMFlg1=           0
         NFxFlg=           0 DoJE=T BraDBF=F KetDBF=T FulRan=T
         wScrn=  0.000000 ICntrl=     500 IOpCl=  0 I1Cent=   200000004 NGrid=           0
         NMat0=    1 NMatS0=      1 NMatT0=    0 NMatD0=    1 NMtDS0=    0 NMtDT0=    0
 Petite list used in FoFCou.
 Keep R1 ints in memory in symmetry-blocked form, NReq=1296348.
 Requested convergence on RMS density matrix=1.00D-08 within 128 cycles.
 Requested convergence on MAX density matrix=1.00D-06.
 Requested convergence on             energy=1.00D-06.
 No special actions if energy rises.
 Integral accuracy reduced to 1.0D-05 until final iterations.
 Initial convergence to 1.0D-05 achieved.  Increase integral accuracy.
 SCF Done:  E(RB3LYP) =  -79.8302827899     A.U. after    9 cycles
            NFock=  9  Conv=0.59D-09     -V/T= 2.0110
 Calling FoFJK, ICntrl=      2127 FMM=F ISym2X=1 I1Cent= 0 IOpClX= 0 NMat=1 NMatS=1 NMatT=0.
 ***** Axes restored to original set *****
 -------------------------------------------------------------------
 Center     Atomic                   Forces (Hartrees/Bohr)
 Number     Number              X              Y              Z
 -------------------------------------------------------------------
      1        6           0.000000000    0.000000000    0.009127418
      2        1           0.000000000    0.000402135   -0.000862394
      3        1          -0.000348259   -0.000201067   -0.000862394
      4        1           0.000348259   -0.000201067   -0.000862394
      5        6           0.000000000    0.000000000   -0.009127418
      6        1          -0.000348259    0.000201067    0.000862394
      7        1           0.000000000   -0.000402135    0.000862394
      8        1           0.000348259    0.000201067    0.000862394
 -------------------------------------------------------------------
 Cartesian Forces:  Max     0.009127418 RMS     0.002677469

 GradGradGradGradGradGradGradGradGradGradGradGradGradGradGradGradGradGrad
 Berny optimization.
 Using GEDIIS/GDIIS optimizer.
 FormGI is forming the generalized inverse of G from B-inverse, IUseBI=4.
 Internal  Forces:  Max     0.006540236 RMS     0.001348581
 Search for a local minimum.
 Step number   2 out of a maximum of   38
 All quantities printed in internal units (Hartrees-Bohrs-Radians)
 Mixed Optimization -- RFO/linear search
 Update second derivatives using D2CorX and points    1    2
 DE= -3.22D-03 DEPred=-3.19D-03 R= 1.01D+00
 TightC=F SS=  1.41D+00  RLast= 1.44D-01 DXNew= 5.0454D-01 4.3307D-01
 Trust test= 1.01D+00 RLast= 1.44D-01 DXMaxT set to 4.33D-01
 ITU=  1  0
 Use linear search instead of GDIIS.
     Eigenvalues ---    0.00237   0.05454   0.05454   0.05454   0.05454
     Eigenvalues ---    0.15086   0.16000   0.16000   0.16000   0.16000
     Eigenvalues ---    0.16000   0.27849   0.37230   0.37230   0.37230
     Eigenvalues ---    0.37230   0.37230   0.39176
 RFO step:  Lambda=-1.95414210D-04 EMin= 2.36824915D-03
 Quartic linear search produced a step of  0.05790.
 Iteration  1 RMS(Cart)=  0.00321538 RMS(Int)=  0.00002345
 Iteration  2 RMS(Cart)=  0.00001416 RMS(Int)=  0.00002015
 Iteration  3 RMS(Cart)=  0.00000000 RMS(Int)=  0.00002015
 ClnCor:  largest displacement from symmetrization is 7.50D-09 for atom     8.
 Variable       Old X    -DE/DX   Delta X   Delta X   Delta X     New X
                                 (Linear)    (Quad)   (Total)
    R1        2.06857   0.00068   0.00270   0.00076   0.00346   2.07203
    R2        2.06857   0.00068   0.00270   0.00076   0.00346   2.07203
    R3        2.06857   0.00068   0.00270   0.00076   0.00346   2.07203
    R4        2.92144  -0.00654   0.00065  -0.02452  -0.02387   2.89757
    R5        2.06857   0.00068   0.00270   0.00076   0.00346   2.07203
    R6        2.06857   0.00068   0.00270   0.00076   0.00346   2.07203
    R7        2.06857   0.00068   0.00270   0.00076   0.00346   2.07203
    A1        1.88497  -0.00068  -0.00149  -0.00393  -0.00544   1.87953
    A2        1.88497  -0.00068  -0.00149  -0.00393  -0.00544   1.87953
    A3        1.93565   0.00065   0.00145   0.00374   0.00515   1.94080
    A4        1.88497  -0.00068  -0.00149  -0.00393  -0.00544   1.87953
    A5        1.93565   0.00065   0.00145   0.00374   0.00515   1.94080
    A6        1.93565   0.00065   0.00145   0.00374   0.00515   1.94080
    A7        1.93565   0.00065   0.00145   0.00374   0.00515   1.94080
    A8        1.93565   0.00065   0.00145   0.00374   0.00515   1.94080
    A9        1.93565   0.00065   0.00145   0.00374   0.00515   1.94080
   A10        1.88497  -0.00068  -0.00149  -0.00393  -0.00544   1.87953
   A11        1.88497  -0.00068  -0.00149  -0.00393  -0.00544   1.87953
   A12        1.88497  -0.00068  -0.00149  -0.00393  -0.00544   1.87953
    D1        1.04720   0.00000   0.00000   0.00000   0.00000   1.04720
    D2        3.14159   0.00000   0.00000   0.00000   0.00000   3.14159
    D3       -1.04720   0.00000   0.00000   0.00000   0.00000  -1.04720
    D4       -1.04720   0.00000   0.00000   0.00000   0.00000  -1.04720
    D5        1.04720   0.00000   0.00000   0.00000   0.00000   1.04720
    D6        3.14159   0.00000   0.00000   0.00000   0.00000   3.14159
    D7        3.14159   0.00000   0.00000   0.00000   0.00000   3.14159
    D8       -1.04720   0.00000   0.00000   0.00000   0.00000  -1.04720
    D9        1.04720   0.00000   0.00000   0.00000   0.00000   1.04720
         Item               Value     Threshold  Converged?
 Maximum Force            0.006540     0.000450     NO 
 RMS     Force            0.001349     0.000300     NO 
 Maximum Displacement     0.011935     0.001800     NO 
 RMS     Displacement     0.003220     0.001200     NO 
 Predicted change in Energy=-1.052010D-04
 GradGradGradGradGradGradGradGradGradGradGradGradGradGradGradGradGradGrad

                          Input orientation:                          
 ---------------------------------------------------------------------
 Center     Atomic      Atomic             Coordinates (Angstroms)
 Number     Number       Type             X           Y           Z
 ---------------------------------------------------------------------
      1          6           0        0.000000    0.000000   -0.766664
      2          1           0        0.000000    1.022267   -1.163165
      3          1           0       -0.885309   -0.511134   -1.163165
      4          1           0        0.885309   -0.511134   -1.163165
      5          6           0        0.000000    0.000000    0.766664
      6          1           0       -0.885309    0.511134    1.163165
      7          1           0        0.000000   -1.022267    1.163165
      8          1           0        0.885309    0.511134    1.163165
 ---------------------------------------------------------------------
                    Distance matrix (angstroms):
                    1          2          3          4          5
     1  C    0.000000
     2  H    1.096469   0.000000
     3  H    1.096469   1.770618   0.000000
     4  H    1.096469   1.770618   1.770618   0.000000
     5  C    1.533328   2.183866   2.183866   2.183866   0.000000
     6  H    2.183866   2.541032   2.541032   3.097085   1.096469
     7  H    2.183866   3.097085   2.541032   2.541032   1.096469
     8  H    2.183866   2.541032   3.097085   2.541032   1.096469
                    6          7          8
     6  H    0.000000
     7  H    1.770618   0.000000
     8  H    1.770618   1.770618   0.000000
 Stoichiometry    C2H6
 Framework group  D3D[C3(C.C),3SGD(H2)]
 Deg. of freedom     3
 Full point group                 D3D     NOp  12
 Largest Abelian subgroup         C2H     NOp   4
 Largest concise Abelian subgroup C2H     NOp   4
                         Standard orientation:                         
 ---------------------------------------------------------------------
 Center     Atomic      Atomic             Coordinates (Angstroms)
 Number     Number       Type             X           Y           Z
 ---------------------------------------------------------------------
      1          6           0        0.000000    0.000000    0.766664
      2          1           0        0.000000    1.022267    1.163165
      3          1           0        0.885309   -0.511134    1.163165
      4          1           0       -0.885309   -0.511134    1.163165
      5          6           0        0.000000    0.000000   -0.766664
      6          1           0        0.885309    0.511134   -1.163165
      7          1           0        0.000000   -1.022267   -1.163165
      8          1           0       -0.885309    0.511134   -1.163165
 ---------------------------------------------------------------------
 Rotational constants (GHZ):     79.9746070     19.8597256     19.8597256
 Standard basis: 6-31G(d) (6D, 7F)
 There are    15 symmetry adapted cartesian basis functions of AG  symmetry.
 There are     6 symmetry adapted cartesian basis functions of BG  symmetry.
 There are     6 symmetry adapted cartesian basis functions of AU  symmetry.
 There are    15 symmetry adapted cartesian basis functions of BU  symmetry.
 There are    15 symmetry adapted basis functions of AG  symmetry.
 There are     6 symmetry adapted basis functions of BG  symmetry.
 There are     6 symmetry adapted basis functions of AU  symmetry.
 There are    15 symmetry adapted basis functions of BU  symmetry.
    42 basis functions,    80 primitive gaussians,    42 cartesian basis functions
     9 alpha electrons        9 beta electrons
       nuclear repulsion energy        42.0770471949 Hartrees.
 NAtoms=    8 NActive=    8 NUniq=    2 SFac= 4.00D+00 NAtFMM=   60 NAOKFM=F Big=F
 Integral buffers will be    131072 words long.
 Raffenetti 2 integral format.
 Two-electron integral symmetry is turned on.
 One-electron integrals computed using PRISM.
 NBasis=    42 RedAO= T EigKep=  8.27D-03  NBF=    15     6     6    15
 NBsUse=    42 1.00D-06 EigRej= -1.00D+00 NBFU=    15     6     6    15
 Initial guess from the checkpoint file:  "C:\Work\Gau-7332.chk"
 B after Tr=     0.000000    0.000000    0.000000
         Rot=    1.000000    0.000000    0.000000    0.000000 Ang=   0.00 deg.
 Initial guess orbital symmetries:
       Occupied  (A1G) (A2U) (A1G) (A2U) (EU) (EU) (A1G) (EG) (EG)
       Virtual   (A2U) (A2U) (A2U) (A2U) (A2U) (A2U) (A2U) (A2U)
                 (A2U) (A2U) (A2U) (A2U) (A2U) (A2U) (A2U) (A2U)
                 (?A) (?A) (?A) (?A) (?A) (?A) (?A) (?A) (?A) (?A)
                 (?A) (?A) (?A) (?A) (?A) (?A) (?A)
 Keep R1 ints in memory in symmetry-blocked form, NReq=1296348.
 Requested convergence on RMS density matrix=1.00D-08 within 128 cycles.
 Requested convergence on MAX density matrix=1.00D-06.
 Requested convergence on             energy=1.00D-06.
 No special actions if energy rises.
 SCF Done:  E(RB3LYP) =  -79.8304091764     A.U. after    6 cycles
            NFock=  6  Conv=0.89D-08     -V/T= 2.0109
 Calling FoFJK, ICntrl=      2127 FMM=F ISym2X=1 I1Cent= 0 IOpClX= 0 NMat=1 NMatS=1 NMatT=0.
 ***** Axes restored to original set *****
 -------------------------------------------------------------------
 Center     Atomic                   Forces (Hartrees/Bohr)
 Number     Number              X              Y              Z
 -------------------------------------------------------------------
      1        6           0.000000000    0.000000000    0.001590100
      2        1           0.000000000   -0.000374004   -0.000190328
      3        1           0.000323897    0.000187002   -0.000190328
      4        1          -0.000323897    0.000187002   -0.000190328
      5        6           0.000000000    0.000000000   -0.001590100
      6        1           0.000323897   -0.000187002    0.000190328
      7        1           0.000000000    0.000374004    0.000190328
      8        1          -0.000323897   -0.000187002    0.000190328
 -------------------------------------------------------------------
 Cartesian Forces:  Max     0.001590100 RMS     0.000504705

 GradGradGradGradGradGradGradGradGradGradGradGradGradGradGradGradGradGrad
 Berny optimization.
 Using GEDIIS/GDIIS optimizer.
 FormGI is forming the generalized inverse of G from B-inverse, IUseBI=4.
 Internal  Forces:  Max     0.001019117 RMS     0.000310109
 Search for a local minimum.
 Step number   3 out of a maximum of   38
 All quantities printed in internal units (Hartrees-Bohrs-Radians)
 Mixed Optimization -- En-DIIS/RFO-DIIS
 Update second derivatives using D2CorX and points    1    2    3
 DE= -1.26D-04 DEPred=-1.05D-04 R= 1.20D+00
 TightC=F SS=  1.41D+00  RLast= 3.13D-02 DXNew= 7.2833D-01 9.3847D-02
 Trust test= 1.20D+00 RLast= 3.13D-02 DXMaxT set to 4.33D-01
 ITU=  1  1  0
 Use linear search instead of GDIIS.
     Eigenvalues ---    0.00237   0.05400   0.05400   0.05400   0.05400
     Eigenvalues ---    0.11803   0.16000   0.16000   0.16000   0.16000
     Eigenvalues ---    0.16000   0.28458   0.37230   0.37230   0.37230
     Eigenvalues ---    0.37230   0.37230   0.40431
 RFO step:  Lambda=-7.87636534D-06 EMin= 2.36824915D-03
 Quartic linear search produced a step of  0.21401.
 Iteration  1 RMS(Cart)=  0.00173380 RMS(Int)=  0.00000556
 Iteration  2 RMS(Cart)=  0.00000473 RMS(Int)=  0.00000401
 Iteration  3 RMS(Cart)=  0.00000000 RMS(Int)=  0.00000401
 ClnCor:  largest displacement from symmetrization is 7.51D-09 for atom     7.
 Variable       Old X    -DE/DX   Delta X   Delta X   Delta X     New X
                                 (Linear)    (Quad)   (Total)
    R1        2.07203  -0.00028   0.00074  -0.00113  -0.00039   2.07163
    R2        2.07203  -0.00028   0.00074  -0.00113  -0.00039   2.07163
    R3        2.07203  -0.00028   0.00074  -0.00113  -0.00039   2.07163
    R4        2.89757  -0.00102  -0.00511   0.00007  -0.00504   2.89253
    R5        2.07203  -0.00028   0.00074  -0.00113  -0.00039   2.07163
    R6        2.07203  -0.00028   0.00074  -0.00113  -0.00039   2.07163
    R7        2.07203  -0.00028   0.00074  -0.00113  -0.00039   2.07163
    A1        1.87953  -0.00032  -0.00116  -0.00168  -0.00285   1.87668
    A2        1.87953  -0.00032  -0.00116  -0.00168  -0.00285   1.87668
    A3        1.94080   0.00030   0.00110   0.00158   0.00268   1.94347
    A4        1.87953  -0.00032  -0.00116  -0.00168  -0.00285   1.87668
    A5        1.94080   0.00030   0.00110   0.00158   0.00268   1.94347
    A6        1.94080   0.00030   0.00110   0.00158   0.00268   1.94347
    A7        1.94080   0.00030   0.00110   0.00158   0.00268   1.94347
    A8        1.94080   0.00030   0.00110   0.00158   0.00268   1.94347
    A9        1.94080   0.00030   0.00110   0.00158   0.00268   1.94347
   A10        1.87953  -0.00032  -0.00116  -0.00168  -0.00285   1.87668
   A11        1.87953  -0.00032  -0.00116  -0.00168  -0.00285   1.87668
   A12        1.87953  -0.00032  -0.00116  -0.00168  -0.00285   1.87668
    D1        1.04720   0.00000   0.00000   0.00000   0.00000   1.04720
    D2        3.14159   0.00000   0.00000   0.00000   0.00000   3.14159
    D3       -1.04720   0.00000   0.00000   0.00000   0.00000  -1.04720
    D4       -1.04720   0.00000   0.00000   0.00000   0.00000  -1.04720
    D5        1.04720   0.00000   0.00000   0.00000   0.00000   1.04720
    D6        3.14159   0.00000   0.00000   0.00000   0.00000   3.14159
    D7        3.14159   0.00000   0.00000   0.00000   0.00000   3.14159
    D8       -1.04720   0.00000   0.00000   0.00000   0.00000  -1.04720
    D9        1.04720   0.00000   0.00000   0.00000   0.00000   1.04720
         Item               Value     Threshold  Converged?
 Maximum Force            0.001019     0.000450     NO 
 RMS     Force            0.000310     0.000300     NO 
 Maximum Displacement     0.002521     0.001800     NO 
 RMS     Displacement     0.001733     0.001200     NO 
 Predicted change in Energy=-8.282637D-06
 GradGradGradGradGradGradGradGradGradGradGradGradGradGradGradGradGradGrad

                          Input orientation:                          
 ---------------------------------------------------------------------
 Center     Atomic      Atomic             Coordinates (Angstroms)
 Number     Number       Type             X           Y           Z
 ---------------------------------------------------------------------
      1          6           0        0.000000    0.000000   -0.765330
      2          1           0        0.000000    1.021009   -1.164489
      3          1           0       -0.884220   -0.510505   -1.164489
      4          1           0        0.884220   -0.510505   -1.164489
      5          6           0        0.000000    0.000000    0.765330
      6          1           0       -0.884220    0.510505    1.164489
      7          1           0        0.000000   -1.021009    1.164489
      8          1           0        0.884220    0.510505    1.164489
 ---------------------------------------------------------------------
                    Distance matrix (angstroms):
                    1          2          3          4          5
     1  C    0.000000
     2  H    1.096261   0.000000
     3  H    1.096261   1.768440   0.000000
     4  H    1.096261   1.768440   1.768440   0.000000
     5  C    1.530659   2.183268   2.183268   2.183268   0.000000
     6  H    2.183268   2.542951   2.542951   3.097415   1.096261
     7  H    2.183268   3.097415   2.542951   2.542951   1.096261
     8  H    2.183268   2.542951   3.097415   2.542951   1.096261
                    6          7          8
     6  H    0.000000
     7  H    1.768440   0.000000
     8  H    1.768440   1.768440   0.000000
 Stoichiometry    C2H6
 Framework group  D3D[C3(C.C),3SGD(H2)]
 Deg. of freedom     3
 Full point group                 D3D     NOp  12
 Largest Abelian subgroup         C2H     NOp   4
 Largest concise Abelian subgroup C2H     NOp   4
                         Standard orientation:                         
 ---------------------------------------------------------------------
 Center     Atomic      Atomic             Coordinates (Angstroms)
 Number     Number       Type             X           Y           Z
 ---------------------------------------------------------------------
      1          6           0        0.000000    0.000000    0.765330
      2          1           0        0.000000    1.021009    1.164489
      3          1           0        0.884220   -0.510505    1.164489
      4          1           0       -0.884220   -0.510505    1.164489
      5          6           0        0.000000    0.000000   -0.765330
      6          1           0        0.884220    0.510505   -1.164489
      7          1           0        0.000000   -1.021009   -1.164489
      8          1           0       -0.884220    0.510505   -1.164489
 ---------------------------------------------------------------------
 Rotational constants (GHZ):     80.1717266     19.8895780     19.8895780
 Standard basis: 6-31G(d) (6D, 7F)
 There are    15 symmetry adapted cartesian basis functions of AG  symmetry.
 There are     6 symmetry adapted cartesian basis functions of BG  symmetry.
 There are     6 symmetry adapted cartesian basis functions of AU  symmetry.
 There are    15 symmetry adapted cartesian basis functions of BU  symmetry.
 There are    15 symmetry adapted basis functions of AG  symmetry.
 There are     6 symmetry adapted basis functions of BG  symmetry.
 There are     6 symmetry adapted basis functions of AU  symmetry.
 There are    15 symmetry adapted basis functions of BU  symmetry.
    42 basis functions,    80 primitive gaussians,    42 cartesian basis functions
     9 alpha electrons        9 beta electrons
       nuclear repulsion energy        42.1055919610 Hartrees.
 NAtoms=    8 NActive=    8 NUniq=    2 SFac= 4.00D+00 NAtFMM=   60 NAOKFM=F Big=F
 Integral buffers will be    131072 words long.
 Raffenetti 2 integral format.
 Two-electron integral symmetry is turned on.
 One-electron integrals computed using PRISM.
 NBasis=    42 RedAO= T EigKep=  8.25D-03  NBF=    15     6     6    15
 NBsUse=    42 1.00D-06 EigRej= -1.00D+00 NBFU=    15     6     6    15
 Initial guess from the checkpoint file:  "C:\Work\Gau-7332.chk"
 B after Tr=     0.000000    0.000000    0.000000
         Rot=    1.000000    0.000000    0.000000    0.000000 Ang=   0.00 deg.
 Initial guess orbital symmetries:
       Occupied  (A1G) (A2U) (A1G) (A2U) (EU) (EU) (A1G) (EG) (EG)
       Virtual   (A2U) (A2U) (A2U) (A2U) (A2U) (A2U) (A2U) (A2U)
                 (A2U) (A2U) (A2U) (A2U) (A2U) (A2U) (A2U) (A2U)
                 (?A) (?A) (?A) (?A) (?A) (?A) (?A) (?A) (?A) (?A)
                 (?A) (?A) (?A) (?A) (?A) (?A) (?A)
 Keep R1 ints in memory in symmetry-blocked form, NReq=1296348.
 Requested convergence on RMS density matrix=1.00D-08 within 128 cycles.
 Requested convergence on MAX density matrix=1.00D-06.
 Requested convergence on             energy=1.00D-06.
 No special actions if energy rises.
 SCF Done:  E(RB3LYP) =  -79.8304174353     A.U. after    6 cycles
            NFock=  6  Conv=0.23D-08     -V/T= 2.0108
 Calling FoFJK, ICntrl=      2127 FMM=F ISym2X=1 I1Cent= 0 IOpClX= 0 NMat=1 NMatS=1 NMatT=0.
 ***** Axes restored to original set *****
 -------------------------------------------------------------------
 Center     Atomic                   Forces (Hartrees/Bohr)
 Number     Number              X              Y              Z
 -------------------------------------------------------------------
      1        6           0.000000000    0.000000000   -0.000016433
      2        1           0.000000000   -0.000058145    0.000030206
      3        1           0.000050355    0.000029073    0.000030206
      4        1          -0.000050355    0.000029073    0.000030206
      5        6           0.000000000    0.000000000    0.000016433
      6        1           0.000050355   -0.000029073   -0.000030206
      7        1           0.000000000    0.000058145   -0.000030206
      8        1          -0.000050355   -0.000029073   -0.000030206
 -------------------------------------------------------------------
 Cartesian Forces:  Max     0.000058145 RMS     0.000033103

 GradGradGradGradGradGradGradGradGradGradGradGradGradGradGradGradGradGrad
 Berny optimization.
 Using GEDIIS/GDIIS optimizer.
 FormGI is forming the generalized inverse of G from B-inverse, IUseBI=4.
 Internal  Forces:  Max     0.000074185 RMS     0.000033571
 Search for a local minimum.
 Step number   4 out of a maximum of   38
 All quantities printed in internal units (Hartrees-Bohrs-Radians)
 Mixed Optimization -- En-DIIS/RFO-DIIS
 Swapping is turned off.
 Update second derivatives using D2CorX and points    1    2    3    4
 DE= -8.26D-06 DEPred=-8.28D-06 R= 9.97D-01
 TightC=F SS=  1.41D+00  RLast= 1.09D-02 DXNew= 7.2833D-01 3.2578D-02
 Trust test= 9.97D-01 RLast= 1.09D-02 DXMaxT set to 4.33D-01
 ITU=  1  1  1  0
     Eigenvalues ---    0.00237   0.05372   0.05372   0.05372   0.05372
     Eigenvalues ---    0.12467   0.16000   0.16000   0.16000   0.16000
     Eigenvalues ---    0.16000   0.28879   0.37022   0.37230   0.37230
     Eigenvalues ---    0.37230   0.37230   0.37230
 En-DIIS/RFO-DIIS IScMMF=        0 using points:     4    3
 RFO step:  Lambda=-5.22082541D-08.
 DidBck=F Rises=F RFO-DIIS coefs:    1.01860   -0.01860
 Iteration  1 RMS(Cart)=  0.00012920 RMS(Int)=  0.00000004
 Iteration  2 RMS(Cart)=  0.00000000 RMS(Int)=  0.00000004
 ClnCor:  largest displacement from symmetrization is 4.84D-09 for atom     7.
 Variable       Old X    -DE/DX   Delta X   Delta X   Delta X     New X
                                 (Linear)    (Quad)   (Total)
    R1        2.07163  -0.00007  -0.00001  -0.00017  -0.00017   2.07146
    R2        2.07163  -0.00007  -0.00001  -0.00017  -0.00017   2.07146
    R3        2.07163  -0.00007  -0.00001  -0.00017  -0.00017   2.07146
    R4        2.89253  -0.00007  -0.00009  -0.00012  -0.00022   2.89231
    R5        2.07163  -0.00007  -0.00001  -0.00017  -0.00017   2.07146
    R6        2.07163  -0.00007  -0.00001  -0.00017  -0.00017   2.07146
    R7        2.07163  -0.00007  -0.00001  -0.00017  -0.00017   2.07146
    A1        1.87668   0.00001  -0.00005   0.00009   0.00004   1.87672
    A2        1.87668   0.00001  -0.00005   0.00009   0.00004   1.87672
    A3        1.94347  -0.00001   0.00005  -0.00008  -0.00003   1.94344
    A4        1.87668   0.00001  -0.00005   0.00009   0.00004   1.87672
    A5        1.94347  -0.00001   0.00005  -0.00008  -0.00003   1.94344
    A6        1.94347  -0.00001   0.00005  -0.00008  -0.00003   1.94344
    A7        1.94347  -0.00001   0.00005  -0.00008  -0.00003   1.94344
    A8        1.94347  -0.00001   0.00005  -0.00008  -0.00003   1.94344
    A9        1.94347  -0.00001   0.00005  -0.00008  -0.00003   1.94344
   A10        1.87668   0.00001  -0.00005   0.00009   0.00004   1.87672
   A11        1.87668   0.00001  -0.00005   0.00009   0.00004   1.87672
   A12        1.87668   0.00001  -0.00005   0.00009   0.00004   1.87672
    D1        1.04720   0.00000   0.00000   0.00000   0.00000   1.04720
    D2        3.14159   0.00000   0.00000   0.00000   0.00000   3.14159
    D3       -1.04720   0.00000   0.00000   0.00000   0.00000  -1.04720
    D4       -1.04720   0.00000   0.00000   0.00000   0.00000  -1.04720
    D5        1.04720   0.00000   0.00000   0.00000   0.00000   1.04720
    D6        3.14159   0.00000   0.00000   0.00000   0.00000   3.14159
    D7        3.14159   0.00000   0.00000   0.00000   0.00000   3.14159
    D8       -1.04720   0.00000   0.00000   0.00000   0.00000  -1.04720
    D9        1.04720   0.00000   0.00000   0.00000   0.00000   1.04720
         Item               Value     Threshold  Converged?
 Maximum Force            0.000074     0.000450     YES
 RMS     Force            0.000034     0.000300     YES
 Maximum Displacement     0.000235     0.001800     YES
 RMS     Displacement     0.000129     0.001200     YES
 Predicted change in Energy=-4.346965D-08
 Optimization completed.
    -- Stationary point found.
                           ----------------------------
                           !   Optimized Parameters   !
                           ! (Angstroms and Degrees)  !
 --------------------------                            --------------------------
 ! Name  Definition              Value          Derivative Info.                !
 --------------------------------------------------------------------------------
 ! R1    R(1,2)                  1.0963         -DE/DX =   -0.0001              !
 ! R2    R(1,3)                  1.0963         -DE/DX =   -0.0001              !
 ! R3    R(1,4)                  1.0963         -DE/DX =   -0.0001              !
 ! R4    R(1,5)                  1.5307         -DE/DX =   -0.0001              !
 ! R5    R(5,6)                  1.0963         -DE/DX =   -0.0001              !
 ! R6    R(5,7)                  1.0963         -DE/DX =   -0.0001              !
 ! R7    R(5,8)                  1.0963         -DE/DX =   -0.0001              !
 ! A1    A(2,1,3)              107.5259         -DE/DX =    0.0                 !
 ! A2    A(2,1,4)              107.5259         -DE/DX =    0.0                 !
 ! A3    A(2,1,5)              111.3528         -DE/DX =    0.0                 !
 ! A4    A(3,1,4)              107.5259         -DE/DX =    0.0                 !
 ! A5    A(3,1,5)              111.3528         -DE/DX =    0.0                 !
 ! A6    A(4,1,5)              111.3528         -DE/DX =    0.0                 !
 ! A7    A(1,5,6)              111.3528         -DE/DX =    0.0                 !
 ! A8    A(1,5,7)              111.3528         -DE/DX =    0.0                 !
 ! A9    A(1,5,8)              111.3528         -DE/DX =    0.0                 !
 ! A10   A(6,5,7)              107.5259         -DE/DX =    0.0                 !
 ! A11   A(6,5,8)              107.5259         -DE/DX =    0.0                 !
 ! A12   A(7,5,8)              107.5259         -DE/DX =    0.0                 !
 ! D1    D(2,1,5,6)             60.0            -DE/DX =    0.0                 !
 ! D2    D(2,1,5,7)            180.0            -DE/DX =    0.0                 !
 ! D3    D(2,1,5,8)            -60.0            -DE/DX =    0.0                 !
 ! D4    D(3,1,5,6)            -60.0            -DE/DX =    0.0                 !
 ! D5    D(3,1,5,7)             60.0            -DE/DX =    0.0                 !
 ! D6    D(3,1,5,8)            180.0            -DE/DX =    0.0                 !
 ! D7    D(4,1,5,6)            180.0            -DE/DX =    0.0                 !
 ! D8    D(4,1,5,7)            -60.0            -DE/DX =    0.0                 !
 ! D9    D(4,1,5,8)             60.0            -DE/DX =    0.0                 !
 --------------------------------------------------------------------------------
 GradGradGradGradGradGradGradGradGradGradGradGradGradGradGradGradGradGrad

                          Input orientation:                          
 ---------------------------------------------------------------------
 Center     Atomic      Atomic             Coordinates (Angstroms)
 Number     Number       Type             X           Y           Z
 ---------------------------------------------------------------------
      1          6           0        0.000000    0.000000   -0.765330
      2          1           0        0.000000    1.021009   -1.164489
      3          1           0       -0.884220   -0.510505   -1.164489
      4          1           0        0.884220   -0.510505   -1.164489
      5          6           0        0.000000    0.000000    0.765330
      6          1           0       -0.884220    0.510505    1.164489
      7          1           0        0.000000   -1.021009    1.164489
      8          1           0        0.884220    0.510505    1.164489
 ---------------------------------------------------------------------
                    Distance matrix (angstroms):
                    1          2          3          4          5
     1  C    0.000000
     2  H    1.096261   0.000000
     3  H    1.096261   1.768440   0.000000
     4  H    1.096261   1.768440   1.768440   0.000000
     5  C    1.530659   2.183268   2.183268   2.183268   0.000000
     6  H    2.183268   2.542951   2.542951   3.097415   1.096261
     7  H    2.183268   3.097415   2.542951   2.542951   1.096261
     8  H    2.183268   2.542951   3.097415   2.542951   1.096261
                    6          7          8
     6  H    0.000000
     7  H    1.768440   0.000000
     8  H    1.768440   1.768440   0.000000
 Stoichiometry    C2H6
 Framework group  D3D[C3(C.C),3SGD(H2)]
 Deg. of freedom     3
 Full point group                 D3D     NOp  12
 Largest Abelian subgroup         C2H     NOp   4
 Largest concise Abelian subgroup C2H     NOp   4
                         Standard orientation:                         
 ---------------------------------------------------------------------
 Center     Atomic      Atomic             Coordinates (Angstroms)
 Number     Number       Type             X           Y           Z
 ---------------------------------------------------------------------
      1          6           0        0.000000    0.000000    0.765330
      2          1           0        0.000000    1.021009    1.164489
      3          1           0        0.884220   -0.510505    1.164489
      4          1           0       -0.884220   -0.510505    1.164489
      5          6           0        0.000000    0.000000   -0.765330
      6          1           0        0.884220    0.510505   -1.164489
      7          1           0        0.000000   -1.021009   -1.164489
      8          1           0       -0.884220    0.510505   -1.164489
 ---------------------------------------------------------------------
 Rotational constants (GHZ):     80.1717266     19.8895780     19.8895780

 **********************************************************************

            Population analysis using the SCF density.

 **********************************************************************

 Orbital symmetries:
       Occupied  (A1G) (A2U) (A1G) (A2U) (EU) (EU) (A1G) (EG) (EG)
       Virtual   (A1G) (A2U) (EU) (EU) (EG) (EG) (A2U) (A1G) (EU)
                 (EU) (EG) (EG) (A2U) (EU) (EU) (A1G) (EG) (EG)
                 (A2U) (A1G) (A2U) (EU) (EU) (A1G) (EG) (EG) (EU)
                 (EU) (EG) (EG) (A2U) (A1G) (A2U)
 The electronic state is 1-A1G.
 Alpha  occ. eigenvalues --  -10.17241 -10.17220  -0.74737  -0.61195  -0.43005
 Alpha  occ. eigenvalues --   -0.43005  -0.36283  -0.34006  -0.34006
 Alpha virt. eigenvalues --    0.10476   0.15600   0.16365   0.16365   0.19021
 Alpha virt. eigenvalues --    0.19021   0.24250   0.51317   0.54375   0.54375
 Alpha virt. eigenvalues --    0.63685   0.63685   0.66843   0.88294   0.88294
 Alpha virt. eigenvalues --    0.90643   0.91956   0.91956   0.97917   1.06591
 Alpha virt. eigenvalues --    1.43931   1.52625   1.52625   1.93221   1.98083
 Alpha virt. eigenvalues --    1.98083   2.27043   2.27043   2.33302   2.33302
 Alpha virt. eigenvalues --    2.58713   4.14482   4.36587
          Condensed to atoms (all electrons):
               1          2          3          4          5          6
     1  C    5.012085   0.382747   0.382747   0.382747   0.376108  -0.034548
     2  H    0.382747   0.574880  -0.032366  -0.032366  -0.034548  -0.003624
     3  H    0.382747  -0.032366   0.574880  -0.032366  -0.034548  -0.003624
     4  H    0.382747  -0.032366  -0.032366   0.574880  -0.034548   0.004638
     5  C    0.376108  -0.034548  -0.034548  -0.034548   5.012085   0.382747
     6  H   -0.034548  -0.003624  -0.003624   0.004638   0.382747   0.574880
     7  H   -0.034548   0.004638  -0.003624  -0.003624   0.382747  -0.032366
     8  H   -0.034548  -0.003624   0.004638  -0.003624   0.382747  -0.032366
               7          8
     1  C   -0.034548  -0.034548
     2  H    0.004638  -0.003624
     3  H   -0.003624   0.004638
     4  H   -0.003624  -0.003624
     5  C    0.382747   0.382747
     6  H   -0.032366  -0.032366
     7  H    0.574880  -0.032366
     8  H   -0.032366   0.574880
 Mulliken charges:
               1
     1  C   -0.432791
     2  H    0.144264
     3  H    0.144264
     4  H    0.144264
     5  C   -0.432791
     6  H    0.144264
     7  H    0.144264
     8  H    0.144264
 Sum of Mulliken charges =   0.00000
 Mulliken charges with hydrogens summed into heavy atoms:
               1
     1  C    0.000000
     5  C    0.000000
 Electronic spatial extent (au):  <R**2>=            109.6950
 Charge=              0.0000 electrons
 Dipole moment (field-independent basis, Debye):
    X=              0.0000    Y=              0.0000    Z=              0.0000  Tot=              0.0000
 Quadrupole moment (field-independent basis, Debye-Ang):
   XX=            -14.7148   YY=            -14.7148   ZZ=            -15.2307
   XY=              0.0000   XZ=              0.0000   YZ=              0.0000
 Traceless Quadrupole moment (field-independent basis, Debye-Ang):
   XX=              0.1720   YY=              0.1720   ZZ=             -0.3439
   XY=              0.0000   XZ=              0.0000   YZ=              0.0000
 Octapole moment (field-independent basis, Debye-Ang**2):
  XXX=              0.0000  YYY=              0.0000  ZZZ=              0.0000  XYY=              0.0000
  XXY=              0.0000  XXZ=              0.0000  XZZ=              0.0000  YZZ=              0.0000
  YYZ=              0.0000  XYZ=              0.0000
 Hexadecapole moment (field-independent basis, Debye-Ang**3):
 XXXX=            -28.6651 YYYY=            -28.6651 ZZZZ=            -92.7408 XXXY=              0.0000
 XXXZ=              0.0000 YYYX=              0.0000 YYYZ=              1.1988 ZZZX=              0.0000
 ZZZY=              0.0000 XXYY=             -9.5550 XXZZ=            -19.1620 YYZZ=            -19.1620
 XXYZ=             -1.1988 YYXZ=              0.0000 ZZXY=              0.0000
 N-N= 4.210559196102D+01 E-N=-2.680164440699D+02  KE= 7.897404106223D+01
 Symmetry AG   KE= 3.891576056885D+01
 Symmetry BG   KE= 2.084378093068D+00
 Symmetry AU   KE= 1.815540975998D+00
 Symmetry BU   KE= 3.615836142431D+01
 1|1|UNPC-CBEGRAD02|FOpt|RB3LYP|6-31G(d)|C2H6|GPD20001|10-Dec-2021|0||#
  opt freq b3lyp/6-31g(d)||C2H6 - opt + freq||0,1|C,0.,0.,-0.7653296787
 |H,0.0000000001,1.0210094993,-1.1644891277|H,-0.884220164,-0.510504749
 5,-1.1644891277|H,0.8842201638,-0.5105047498,-1.1644891277|C,0.,0.,0.7
 653296787|H,-0.8842201638,0.5105047498,1.1644891277|H,-0.0000000001,-1
 .0210094993,1.1644891277|H,0.884220164,0.5105047495,1.1644891277||Vers
 ion=EM64W-G09RevD.01|State=1-A1G|HF=-79.8304174|RMSD=2.252e-009|RMSF=3
 .310e-005|Dipole=0.,0.,0.|Quadrupole=0.1278555,0.1278555,-0.255711,0.,
 0.,0.|PG=D03D [C3(C1.C1),3SGD(H2)]||@


 WE'RE IN THE POSITION OF A VISITOR FROM ANOTHER
 DIMENSION WHO COMES TO EARTH AND SEES A CHESS MATCH.
 ASSUMING HE KNOWS IT'S A GAME, HE'S GOT TWO PROBLEMS:
 FIRST, FIGURE OUT THE RULES, AND SECOND, FIGURE OUT HOW TO WIN.
 NINETY PERCENT OF SCIENCE (INCLUDING VIRTUALLY ALL OF CHEMISRY)
 IS IN THAT SECOND CATEGORY.  THEY'RE TRYING TO APPLY
 THE LAWS THAT ARE ALREADY KNOWN.

                     -- SHELDON GLASHOW, 1979
 Job cpu time:       0 days  0 hours  0 minutes 18.0 seconds.
 File lengths (MBytes):  RWF=      5 Int=      0 D2E=      0 Chk=      1 Scr=      1
 Normal termination of Gaussian 09 at Fri Dec 10 14:45:39 2021.
 Link1:  Proceeding to internal job step number  2.
 --------------------------------------------------------------------
 #N Geom=AllCheck Guess=TCheck SCRF=Check GenChk RB3LYP/6-31G(d) Freq
 --------------------------------------------------------------------
 1/10=4,29=7,30=1,38=1,40=1/1,3;
 2/12=2,40=1/2;
 3/5=1,6=6,7=1,11=2,14=-4,16=1,25=1,30=1,70=2,71=2,74=-5,116=1,140=1/1,2,3;
 4/5=101/1;
 5/5=2,98=1/2;
 8/6=4,10=90,11=11/1;
 11/6=1,8=1,9=11,15=111,16=1/1,2,10;
 10/6=1/2;
 6/7=2,8=2,9=2,10=2,18=1,28=1/1;
 7/8=1,10=1,25=1/1,2,3,16;
 1/10=4,30=1/3;
 99//99;
 Structure from the checkpoint file:  "C:\Work\Gau-7332.chk"
 -----------------
 C2H6 - opt + freq
 -----------------
 Charge =  0 Multiplicity = 1
 Redundant internal coordinates found in file.
 C,0,0.,0.,-0.7653296787
 H,0,0.0000000001,1.0210094993,-1.1644891277
 H,0,-0.884220164,-0.5105047495,-1.1644891277
 H,0,0.8842201638,-0.5105047498,-1.1644891277
 C,0,0.,0.,0.7653296787
 H,0,-0.8842201638,0.5105047498,1.1644891277
 H,0,-0.0000000001,-1.0210094993,1.1644891277
 H,0,0.884220164,0.5105047495,1.1644891277
 Recover connectivity data from disk.

 GradGradGradGradGradGradGradGradGradGradGradGradGradGradGradGradGradGrad
 Berny optimization.
 Initialization pass.
                           ----------------------------
                           !    Initial Parameters    !
                           ! (Angstroms and Degrees)  !
 --------------------------                            --------------------------
 ! Name  Definition              Value          Derivative Info.                !
 --------------------------------------------------------------------------------
 ! R1    R(1,2)                  1.0963         calculate D2E/DX2 analytically  !
 ! R2    R(1,3)                  1.0963         calculate D2E/DX2 analytically  !
 ! R3    R(1,4)                  1.0963         calculate D2E/DX2 analytically  !
 ! R4    R(1,5)                  1.5307         calculate D2E/DX2 analytically  !
 ! R5    R(5,6)                  1.0963         calculate D2E/DX2 analytically  !
 ! R6    R(5,7)                  1.0963         calculate D2E/DX2 analytically  !
 ! R7    R(5,8)                  1.0963         calculate D2E/DX2 analytically  !
 ! A1    A(2,1,3)              107.5259         calculate D2E/DX2 analytically  !
 ! A2    A(2,1,4)              107.5259         calculate D2E/DX2 analytically  !
 ! A3    A(2,1,5)              111.3528         calculate D2E/DX2 analytically  !
 ! A4    A(3,1,4)              107.5259         calculate D2E/DX2 analytically  !
 ! A5    A(3,1,5)              111.3528         calculate D2E/DX2 analytically  !
 ! A6    A(4,1,5)              111.3528         calculate D2E/DX2 analytically  !
 ! A7    A(1,5,6)              111.3528         calculate D2E/DX2 analytically  !
 ! A8    A(1,5,7)              111.3528         calculate D2E/DX2 analytically  !
 ! A9    A(1,5,8)              111.3528         calculate D2E/DX2 analytically  !
 ! A10   A(6,5,7)              107.5259         calculate D2E/DX2 analytically  !
 ! A11   A(6,5,8)              107.5259         calculate D2E/DX2 analytically  !
 ! A12   A(7,5,8)              107.5259         calculate D2E/DX2 analytically  !
 ! D1    D(2,1,5,6)             60.0            calculate D2E/DX2 analytically  !
 ! D2    D(2,1,5,7)            180.0            calculate D2E/DX2 analytically  !
 ! D3    D(2,1,5,8)            -60.0            calculate D2E/DX2 analytically  !
 ! D4    D(3,1,5,6)            -60.0            calculate D2E/DX2 analytically  !
 ! D5    D(3,1,5,7)             60.0            calculate D2E/DX2 analytically  !
 ! D6    D(3,1,5,8)            180.0            calculate D2E/DX2 analytically  !
 ! D7    D(4,1,5,6)            180.0            calculate D2E/DX2 analytically  !
 ! D8    D(4,1,5,7)            -60.0            calculate D2E/DX2 analytically  !
 ! D9    D(4,1,5,8)             60.0            calculate D2E/DX2 analytically  !
 --------------------------------------------------------------------------------
 Trust Radius=3.00D-01 FncErr=1.00D-07 GrdErr=1.00D-07
 Number of steps in this run=      2 maximum allowed number of steps=      2.
 GradGradGradGradGradGradGradGradGradGradGradGradGradGradGradGradGradGrad

                          Input orientation:                          
 ---------------------------------------------------------------------
 Center     Atomic      Atomic             Coordinates (Angstroms)
 Number     Number       Type             X           Y           Z
 ---------------------------------------------------------------------
      1          6           0        0.000000    0.000000   -0.765330
      2          1           0        0.000000    1.021009   -1.164489
      3          1           0       -0.884220   -0.510505   -1.164489
      4          1           0        0.884220   -0.510505   -1.164489
      5          6           0        0.000000    0.000000    0.765330
      6          1           0       -0.884220    0.510505    1.164489
      7          1           0        0.000000   -1.021009    1.164489
      8          1           0        0.884220    0.510505    1.164489
 ---------------------------------------------------------------------
                    Distance matrix (angstroms):
                    1          2          3          4          5
     1  C    0.000000
     2  H    1.096261   0.000000
     3  H    1.096261   1.768440   0.000000
     4  H    1.096261   1.768440   1.768440   0.000000
     5  C    1.530659   2.183268   2.183268   2.183268   0.000000
     6  H    2.183268   2.542951   2.542951   3.097415   1.096261
     7  H    2.183268   3.097415   2.542951   2.542951   1.096261
     8  H    2.183268   2.542951   3.097415   2.542951   1.096261
                    6          7          8
     6  H    0.000000
     7  H    1.768440   0.000000
     8  H    1.768440   1.768440   0.000000
 Stoichiometry    C2H6
 Framework group  D3D[C3(C.C),3SGD(H2)]
 Deg. of freedom     3
 Full point group                 D3D     NOp  12
 Largest Abelian subgroup         C2H     NOp   4
 Largest concise Abelian subgroup C2H     NOp   4
                         Standard orientation:                         
 ---------------------------------------------------------------------
 Center     Atomic      Atomic             Coordinates (Angstroms)
 Number     Number       Type             X           Y           Z
 ---------------------------------------------------------------------
      1          6           0        0.000000    0.000000    0.765330
      2          1           0        0.000000    1.021009    1.164489
      3          1           0        0.884220   -0.510505    1.164489
      4          1           0       -0.884220   -0.510505    1.164489
      5          6           0        0.000000    0.000000   -0.765330
      6          1           0        0.884220    0.510505   -1.164489
      7          1           0        0.000000   -1.021009   -1.164489
      8          1           0       -0.884220    0.510505   -1.164489
 ---------------------------------------------------------------------
 Rotational constants (GHZ):     80.1717266     19.8895780     19.8895780
 Standard basis: 6-31G(d) (6D, 7F)
 There are    15 symmetry adapted cartesian basis functions of AG  symmetry.
 There are     6 symmetry adapted cartesian basis functions of BG  symmetry.
 There are     6 symmetry adapted cartesian basis functions of AU  symmetry.
 There are    15 symmetry adapted cartesian basis functions of BU  symmetry.
 There are    15 symmetry adapted basis functions of AG  symmetry.
 There are     6 symmetry adapted basis functions of BG  symmetry.
 There are     6 symmetry adapted basis functions of AU  symmetry.
 There are    15 symmetry adapted basis functions of BU  symmetry.
    42 basis functions,    80 primitive gaussians,    42 cartesian basis functions
     9 alpha electrons        9 beta electrons
       nuclear repulsion energy        42.1055919610 Hartrees.
 NAtoms=    8 NActive=    8 NUniq=    2 SFac= 4.00D+00 NAtFMM=   60 NAOKFM=F Big=F
 Integral buffers will be    131072 words long.
 Raffenetti 2 integral format.
 Two-electron integral symmetry is turned on.
 One-electron integrals computed using PRISM.
 NBasis=    42 RedAO= T EigKep=  8.25D-03  NBF=    15     6     6    15
 NBsUse=    42 1.00D-06 EigRej= -1.00D+00 NBFU=    15     6     6    15
 Initial guess from the checkpoint file:  "C:\Work\Gau-7332.chk"
 B after Tr=     0.000000    0.000000    0.000000
         Rot=    1.000000    0.000000    0.000000    0.000000 Ang=   0.00 deg.
 Initial guess orbital symmetries:
       Occupied  (A1G) (A2U) (A1G) (A2U) (EU) (EU) (A1G) (EG) (EG)
       Virtual   (A1G) (A2U) (EU) (EU) (EG) (EG) (A2U) (A1G) (EU)
                 (EU) (EG) (EG) (A2U) (EU) (EU) (A1G) (EG) (EG)
                 (A2U) (A1G) (A2U) (EU) (EU) (A1G) (EG) (EG) (EU)
                 (EU) (EG) (EG) (A2U) (A1G) (A2U)
 Keep R1 ints in memory in symmetry-blocked form, NReq=1296348.
 Requested convergence on RMS density matrix=1.00D-08 within 128 cycles.
 Requested convergence on MAX density matrix=1.00D-06.
 Requested convergence on             energy=1.00D-06.
 No special actions if energy rises.
 SCF Done:  E(RB3LYP) =  -79.8304174353     A.U. after    1 cycles
            NFock=  1  Conv=0.15D-09     -V/T= 2.0108
 DoSCS=F DFT=T ScalE2(SS,OS)=  1.000000  1.000000
 Range of M.O.s used for correlation:     1    42
 NBasis=    42 NAE=     9 NBE=     9 NFC=     0 NFV=     0
 NROrb=     42 NOA=     9 NOB=     9 NVA=    33 NVB=    33
 Symmetrizing basis deriv contribution to polar:
 IMax=3 JMax=2 DiffMx= 0.00D+00
 G2DrvN: will do     9 centers at a time, making    1 passes.
 Calling FoFCou, ICntrl=  3107 FMM=F I1Cent=   0 AccDes= 0.00D+00.
 End of G2Drv F.D. properties file   721 does not exist.
 End of G2Drv F.D. properties file   722 does not exist.
 End of G2Drv F.D. properties file   788 does not exist.
          IDoAtm=11111111
          Differentiating once with respect to electric field.
                with respect to dipole field.
          Differentiating once with respect to nuclear coordinates.
 Keep R1 ints in memory in symmetry-blocked form, NReq=1272736.
          There are     9 degrees of freedom in the 1st order CPHF.  IDoFFX=4 NUNeed=     9.
      9 vectors produced by pass  0 Test12= 3.30D-15 1.11D-08 XBig12= 1.22D+01 1.87D+00.
 AX will form     9 AO Fock derivatives at one time.
      9 vectors produced by pass  1 Test12= 3.30D-15 1.11D-08 XBig12= 3.87D-01 2.40D-01.
      9 vectors produced by pass  2 Test12= 3.30D-15 1.11D-08 XBig12= 3.99D-03 1.99D-02.
      9 vectors produced by pass  3 Test12= 3.30D-15 1.11D-08 XBig12= 2.51D-05 1.57D-03.
      9 vectors produced by pass  4 Test12= 3.30D-15 1.11D-08 XBig12= 3.46D-08 5.56D-05.
      7 vectors produced by pass  5 Test12= 3.30D-15 1.11D-08 XBig12= 2.31D-11 1.56D-06.
      3 vectors produced by pass  6 Test12= 3.30D-15 1.11D-08 XBig12= 1.80D-14 4.34D-08.
 InvSVY:  IOpt=1 It=  1 EMax= 8.88D-16
 Solved reduced A of dimension    55 with     9 vectors.
 Isotropic polarizability for W=    0.000000       22.93 Bohr**3.
 End of Minotr F.D. properties file   721 does not exist.
 End of Minotr F.D. properties file   722 does not exist.
 End of Minotr F.D. properties file   788 does not exist.

 **********************************************************************

            Population analysis using the SCF density.

 **********************************************************************

 Orbital symmetries:
       Occupied  (A1G) (A2U) (A1G) (A2U) (EU) (EU) (A1G) (EG) (EG)
       Virtual   (A1G) (A2U) (EU) (EU) (EG) (EG) (A2U) (A1G) (EU)
                 (EU) (EG) (EG) (A2U) (EU) (EU) (A1G) (EG) (EG)
                 (A2U) (A1G) (A2U) (EU) (EU) (A1G) (EG) (EG) (EU)
                 (EU) (EG) (EG) (A2U) (A1G) (A2U)
 The electronic state is 1-A1G.
 Alpha  occ. eigenvalues --  -10.17241 -10.17220  -0.74737  -0.61195  -0.43005
 Alpha  occ. eigenvalues --   -0.43005  -0.36283  -0.34006  -0.34006
 Alpha virt. eigenvalues --    0.10476   0.15600   0.16365   0.16365   0.19021
 Alpha virt. eigenvalues --    0.19021   0.24250   0.51317   0.54375   0.54375
 Alpha virt. eigenvalues --    0.63685   0.63685   0.66843   0.88294   0.88294
 Alpha virt. eigenvalues --    0.90643   0.91956   0.91956   0.97917   1.06591
 Alpha virt. eigenvalues --    1.43931   1.52625   1.52625   1.93221   1.98083
 Alpha virt. eigenvalues --    1.98083   2.27043   2.27043   2.33302   2.33302
 Alpha virt. eigenvalues --    2.58713   4.14482   4.36587
          Condensed to atoms (all electrons):
               1          2          3          4          5          6
     1  C    5.012085   0.382747   0.382747   0.382747   0.376108  -0.034548
     2  H    0.382747   0.574880  -0.032366  -0.032366  -0.034548  -0.003624
     3  H    0.382747  -0.032366   0.574880  -0.032366  -0.034548  -0.003624
     4  H    0.382747  -0.032366  -0.032366   0.574880  -0.034548   0.004638
     5  C    0.376108  -0.034548  -0.034548  -0.034548   5.012085   0.382747
     6  H   -0.034548  -0.003624  -0.003624   0.004638   0.382747   0.574880
     7  H   -0.034548   0.004638  -0.003624  -0.003624   0.382747  -0.032366
     8  H   -0.034548  -0.003624   0.004638  -0.003624   0.382747  -0.032366
               7          8
     1  C   -0.034548  -0.034548
     2  H    0.004638  -0.003624
     3  H   -0.003624   0.004638
     4  H   -0.003624  -0.003624
     5  C    0.382747   0.382747
     6  H   -0.032366  -0.032366
     7  H    0.574880  -0.032366
     8  H   -0.032366   0.574880
 Mulliken charges:
               1
     1  C   -0.432791
     2  H    0.144264
     3  H    0.144264
     4  H    0.144264
     5  C   -0.432791
     6  H    0.144264
     7  H    0.144264
     8  H    0.144264
 Sum of Mulliken charges =   0.00000
 Mulliken charges with hydrogens summed into heavy atoms:
               1
     1  C    0.000000
     5  C    0.000000
 APT charges:
               1
     1  C    0.106733
     2  H   -0.035579
     3  H   -0.035578
     4  H   -0.035578
     5  C    0.106733
     6  H   -0.035578
     7  H   -0.035579
     8  H   -0.035578
 Sum of APT charges =   0.00000
 APT charges with hydrogens summed into heavy atoms:
               1
     1  C   -0.000002
     5  C   -0.000002
 Electronic spatial extent (au):  <R**2>=            109.6950
 Charge=              0.0000 electrons
 Dipole moment (field-independent basis, Debye):
    X=              0.0000    Y=              0.0000    Z=              0.0000  Tot=              0.0000
 Quadrupole moment (field-independent basis, Debye-Ang):
   XX=            -14.7148   YY=            -14.7148   ZZ=            -15.2307
   XY=              0.0000   XZ=              0.0000   YZ=              0.0000
 Traceless Quadrupole moment (field-independent basis, Debye-Ang):
   XX=              0.1720   YY=              0.1720   ZZ=             -0.3439
[...]
     1   6     0.00   0.00   0.09     0.00   0.00  -0.11    -0.02   0.00   0.00
     2   1     0.00   0.17  -0.37     0.00  -0.17   0.36     0.49   0.00   0.00
     3   1     0.14  -0.08  -0.37    -0.15   0.09   0.36     0.03   0.26   0.25
     4   1    -0.14  -0.08  -0.37     0.15   0.09   0.36     0.03  -0.26  -0.25
     5   6     0.00   0.00   0.09     0.00   0.00   0.11     0.02   0.00   0.00
     6   1    -0.14  -0.08  -0.37    -0.15  -0.09  -0.36    -0.03   0.26   0.25
     7   1     0.00   0.17  -0.37     0.00   0.17  -0.36    -0.49   0.00   0.00
     8   1     0.14  -0.08  -0.37     0.15  -0.09  -0.36    -0.03  -0.26  -0.25
                     10                     11                     12
                     EG                     EU                     EU
 Frequencies --   1532.0381              1537.6884              1537.6901
 Red. masses --      1.0199                 1.0620                 1.0620
 Frc consts  --      1.4104                 1.4795                 1.4795
 IR Inten    --      0.0000                 7.4600                 7.4620
  Atom  AN      X      Y      Z        X      Y      Z        X      Y      Z
     1   6     0.00  -0.02   0.00    -0.05   0.00   0.00     0.00   0.05   0.00
     2   1     0.00  -0.12   0.28     0.52   0.00   0.00     0.00   0.12  -0.22
     3   1     0.26   0.34  -0.14     0.04   0.28   0.19    -0.28  -0.36   0.11
     4   1    -0.26   0.34  -0.14     0.04  -0.28  -0.19     0.28  -0.36   0.11
     5   6     0.00   0.02   0.00    -0.05   0.00   0.00     0.00   0.05   0.00
     6   1     0.26  -0.34   0.14     0.04  -0.28  -0.19     0.28  -0.36   0.11
     7   1     0.00   0.12  -0.28     0.52   0.00   0.00     0.00   0.12  -0.22
     8   1    -0.26  -0.34   0.14     0.04   0.28   0.19    -0.28  -0.36   0.11
                     13                     14                     15
                     A1G                    A2U                    EG
 Frequencies --   3046.9725              3047.8170              3098.3147
 Red. masses --      1.0367                 1.0343                 1.1021
 Frc consts  --      5.6705                 5.6607                 6.2331
 IR Inten    --      0.0000                59.0624                 0.0000
  Atom  AN      X      Y      Z        X      Y      Z        X      Y      Z
     1   6     0.00   0.00  -0.04     0.00   0.00   0.03     0.00  -0.07   0.00
     2   1     0.00   0.38   0.14     0.00  -0.38  -0.14     0.00   0.54   0.20
     3   1     0.33  -0.19   0.14    -0.33   0.19  -0.14    -0.24   0.12  -0.10
     4   1    -0.33  -0.19   0.14     0.33   0.19  -0.14     0.24   0.12  -0.10
     5   6     0.00   0.00   0.04     0.00   0.00   0.03     0.00   0.07   0.00
     6   1     0.33   0.19  -0.14     0.33   0.19  -0.14    -0.24  -0.12   0.10
     7   1     0.00  -0.38  -0.14     0.00  -0.38  -0.14     0.00  -0.54  -0.20
     8   1    -0.33   0.19  -0.14    -0.33   0.19  -0.14     0.24  -0.12   0.10
                     16                     17                     18
                     EG                     EU                     EU
 Frequencies --   3098.3148              3122.6954              3122.6972
 Red. masses --      1.1021                 1.1030                 1.1030
 Frc consts  --      6.2331                 6.3372                 6.3372
 IR Inten    --      0.0000                73.8737                73.8659
  Atom  AN      X      Y      Z        X      Y      Z        X      Y      Z
     1   6    -0.07   0.00   0.00     0.07   0.00   0.00     0.00   0.07   0.00
     2   1    -0.02   0.00   0.00     0.01   0.00   0.00     0.00  -0.54  -0.21
     3   1     0.40  -0.24   0.18    -0.40   0.24  -0.18     0.24  -0.12   0.10
     4   1     0.40   0.24  -0.18    -0.40  -0.24   0.18    -0.24  -0.12   0.10
     5   6     0.07   0.00   0.00     0.07   0.00   0.00     0.00   0.07   0.00
     6   1    -0.40  -0.24   0.18    -0.40  -0.24   0.18    -0.24  -0.12   0.10
     7   1     0.02   0.00   0.00     0.01   0.00   0.00     0.00  -0.54  -0.21
     8   1    -0.40   0.24  -0.18    -0.40   0.24  -0.18     0.24  -0.12   0.10

 -------------------
 - Thermochemistry -
 -------------------
 Temperature   298.150 Kelvin.  Pressure   1.00000 Atm.
 Atom     1 has atomic number  6 and mass  12.00000
 Atom     2 has atomic number  1 and mass   1.00783
 Atom     3 has atomic number  1 and mass   1.00783
 Atom     4 has atomic number  1 and mass   1.00783
 Atom     5 has atomic number  6 and mass  12.00000
 Atom     6 has atomic number  1 and mass   1.00783
 Atom     7 has atomic number  1 and mass   1.00783
 Atom     8 has atomic number  1 and mass   1.00783
 Molecular mass:    30.04695 amu.
 Principal axes and moments of inertia in atomic units:
                           1         2         3
     Eigenvalues --    22.51094  90.73803  90.73803
           X            0.00000  -0.56921   0.82219
           Y            0.00000   0.82219   0.56921
           Z            1.00000   0.00000   0.00000
 This molecule is a prolate symmetric top.
 Rotational symmetry number  6.
 Rotational temperatures (Kelvin)      3.84763     0.95455     0.95455
 Rotational constants (GHZ):          80.17173    19.88958    19.88958
 Zero-point vibrational energy     197513.7 (Joules/Mol)
                                   47.20691 (Kcal/Mol)
 Warning -- explicit consideration of   1 degrees of freedom as
           vibrations may cause significant error
 Vibrational temperatures:    451.80  1197.53  1197.53  1452.78  1777.29
          (Kelvin)           1777.30  2060.98  2092.02  2204.26  2204.26
                             2212.39  2212.39  4383.91  4385.12  4457.78
                             4457.78  4492.86  4492.86
 
 Zero-point correction=                           0.075229 (Hartree/Particle)
 Thermal correction to Energy=                    0.078698
 Thermal correction to Enthalpy=                  0.079642
 Thermal correction to Gibbs Free Energy=         0.053810
 Sum of electronic and zero-point Energies=            -79.755188
 Sum of electronic and thermal Energies=               -79.751720
 Sum of electronic and thermal Enthalpies=             -79.750776
 Sum of electronic and thermal Free Energies=          -79.776607
 
                     E (Thermal)             CV                S
                      KCal/Mol        Cal/Mol-Kelvin    Cal/Mol-Kelvin
 Total                   49.384              9.988             54.367
 Electronic               0.000              0.000              0.000
 Translational            0.889              2.981             36.134
 Rotational               0.889              2.981             16.295
 Vibrational             47.606              4.026              1.938
 Vibration     1          0.702              1.647              1.341
                       Q            Log10(Q)             Ln(Q)
 Total Bot       0.177411D-24        -24.751020        -56.991330
 Total V=0       0.710955D+10          9.851842         22.684704
 Vib (Bot)       0.337398D-34        -34.471857        -79.374385
 Vib (Bot)    1  0.600770D+00         -0.221291         -0.509542
 Vib (V=0)       0.135209D+01          0.131005          0.301650
 Vib (V=0)    1  0.128162D+01          0.107758          0.248123
 Electronic      0.100000D+01          0.000000          0.000000
 Translational   0.647375D+07          6.811156         15.683266
 Rotational      0.812234D+03          2.909681          6.699789
 ***** Axes restored to original set *****
 -------------------------------------------------------------------
 Center     Atomic                   Forces (Hartrees/Bohr)
 Number     Number              X              Y              Z
 -------------------------------------------------------------------
      1        6           0.000000000    0.000000000   -0.000016434
      2        1           0.000000000   -0.000058145    0.000030206
      3        1           0.000050355    0.000029073    0.000030206
      4        1          -0.000050355    0.000029073    0.000030206
      5        6           0.000000000    0.000000000    0.000016434
      6        1           0.000050355   -0.000029073   -0.000030206
      7        1           0.000000000    0.000058145   -0.000030206
      8        1          -0.000050355   -0.000029073   -0.000030206
 -------------------------------------------------------------------
 Cartesian Forces:  Max     0.000058145 RMS     0.000033103
 FormGI is forming the generalized inverse of G from B-inverse, IUseBI=4.

 GradGradGradGradGradGradGradGradGradGradGradGradGradGradGradGradGradGrad
 Berny optimization.
 Internal  Forces:  Max     0.000074185 RMS     0.000033571
 Search for a local minimum.
 Step number   1 out of a maximum of    2
 All quantities printed in internal units (Hartrees-Bohrs-Radians)
 Second derivative matrix not updated -- analytic derivatives used.
 ITU=  0
     Eigenvalues ---    0.00231   0.04648   0.04648   0.04869   0.04869
     Eigenvalues ---    0.12417   0.12592   0.12592   0.12847   0.18086
     Eigenvalues ---    0.18086   0.30681   0.33485   0.33485   0.33751
     Eigenvalues ---    0.33751   0.34582   0.34806
 Angle between quadratic step and forces=   6.68 degrees.
 Linear search not attempted -- first point.
 Iteration  1 RMS(Cart)=  0.00013423 RMS(Int)=  0.00000000
 Iteration  2 RMS(Cart)=  0.00000000 RMS(Int)=  0.00000000
 ClnCor:  largest displacement from symmetrization is 5.46D-09 for atom     4.
 Variable       Old X    -DE/DX   Delta X   Delta X   Delta X     New X
                                 (Linear)    (Quad)   (Total)
    R1        2.07163  -0.00007   0.00000  -0.00019  -0.00019   2.07145
    R2        2.07163  -0.00007   0.00000  -0.00019  -0.00019   2.07145
    R3        2.07163  -0.00007   0.00000  -0.00019  -0.00019   2.07145
    R4        2.89253  -0.00007   0.00000  -0.00021  -0.00021   2.89232
    R5        2.07163  -0.00007   0.00000  -0.00019  -0.00019   2.07145
    R6        2.07163  -0.00007   0.00000  -0.00019  -0.00019   2.07145
    R7        2.07163  -0.00007   0.00000  -0.00019  -0.00019   2.07145
    A1        1.87668   0.00001   0.00000   0.00004   0.00004   1.87672
    A2        1.87668   0.00001   0.00000   0.00004   0.00004   1.87672
    A3        1.94347  -0.00001   0.00000  -0.00004  -0.00004   1.94344
    A4        1.87668   0.00001   0.00000   0.00004   0.00004   1.87672
    A5        1.94347  -0.00001   0.00000  -0.00004  -0.00004   1.94344
    A6        1.94347  -0.00001   0.00000  -0.00004  -0.00004   1.94344
    A7        1.94347  -0.00001   0.00000  -0.00004  -0.00004   1.94344
    A8        1.94347  -0.00001   0.00000  -0.00004  -0.00004   1.94344
    A9        1.94347  -0.00001   0.00000  -0.00004  -0.00004   1.94344
   A10        1.87668   0.00001   0.00000   0.00004   0.00004   1.87672
   A11        1.87668   0.00001   0.00000   0.00004   0.00004   1.87672
   A12        1.87668   0.00001   0.00000   0.00004   0.00004   1.87672
    D1        1.04720   0.00000   0.00000   0.00000   0.00000   1.04720
    D2        3.14159   0.00000   0.00000   0.00000   0.00000   3.14159
    D3       -1.04720   0.00000   0.00000   0.00000   0.00000  -1.04720
    D4       -1.04720   0.00000   0.00000   0.00000   0.00000  -1.04720
    D5        1.04720   0.00000   0.00000   0.00000   0.00000   1.04720
    D6        3.14159   0.00000   0.00000   0.00000   0.00000   3.14159
    D7        3.14159   0.00000   0.00000   0.00000   0.00000   3.14159
    D8       -1.04720   0.00000   0.00000   0.00000   0.00000  -1.04720
    D9        1.04720   0.00000   0.00000   0.00000   0.00000   1.04720
         Item               Value     Threshold  Converged?
 Maximum Force            0.000074     0.000450     YES
 RMS     Force            0.000034     0.000300     YES
 Maximum Displacement     0.000242     0.001800     YES
 RMS     Displacement     0.000134     0.001200     YES
 Predicted change in Energy=-4.595650D-08
 Optimization completed.
    -- Stationary point found.
                           ----------------------------
                           !   Optimized Parameters   !
                           ! (Angstroms and Degrees)  !
 --------------------------                            --------------------------
 ! Name  Definition              Value          Derivative Info.                !
 --------------------------------------------------------------------------------
 ! R1    R(1,2)                  1.0963         -DE/DX =   -0.0001              !
 ! R2    R(1,3)                  1.0963         -DE/DX =   -0.0001              !
 ! R3    R(1,4)                  1.0963         -DE/DX =   -0.0001              !
 ! R4    R(1,5)                  1.5307         -DE/DX =   -0.0001              !
 ! R5    R(5,6)                  1.0963         -DE/DX =   -0.0001              !
 ! R6    R(5,7)                  1.0963         -DE/DX =   -0.0001              !
 ! R7    R(5,8)                  1.0963         -DE/DX =   -0.0001              !
 ! A1    A(2,1,3)              107.5259         -DE/DX =    0.0                 !
 ! A2    A(2,1,4)              107.5259         -DE/DX =    0.0                 !
 ! A3    A(2,1,5)              111.3528         -DE/DX =    0.0                 !
 ! A4    A(3,1,4)              107.5259         -DE/DX =    0.0                 !
 ! A5    A(3,1,5)              111.3528         -DE/DX =    0.0                 !
 ! A6    A(4,1,5)              111.3528         -DE/DX =    0.0                 !
 ! A7    A(1,5,6)              111.3528         -DE/DX =    0.0                 !
 ! A8    A(1,5,7)              111.3528         -DE/DX =    0.0                 !
 ! A9    A(1,5,8)              111.3528         -DE/DX =    0.0                 !
 ! A10   A(6,5,7)              107.5259         -DE/DX =    0.0                 !
 ! A11   A(6,5,8)              107.5259         -DE/DX =    0.0                 !
 ! A12   A(7,5,8)              107.5259         -DE/DX =    0.0                 !
 ! D1    D(2,1,5,6)             60.0            -DE/DX =    0.0                 !
 ! D2    D(2,1,5,7)            180.0            -DE/DX =    0.0                 !
 ! D3    D(2,1,5,8)            -60.0            -DE/DX =    0.0                 !
 ! D4    D(3,1,5,6)            -60.0            -DE/DX =    0.0                 !
 ! D5    D(3,1,5,7)             60.0            -DE/DX =    0.0                 !
 ! D6    D(3,1,5,8)            180.0            -DE/DX =    0.0                 !
 ! D7    D(4,1,5,6)            180.0            -DE/DX =    0.0                 !
 ! D8    D(4,1,5,7)            -60.0            -DE/DX =    0.0                 !
 ! D9    D(4,1,5,8)             60.0            -DE/DX =    0.0                 !
 --------------------------------------------------------------------------------
 GradGradGradGradGradGradGradGradGradGradGradGradGradGradGradGradGradGrad

 1|1|UNPC-CBEGRAD02|Freq|RB3LYP|6-31G(d)|C2H6|GPD20001|10-Dec-2021|0||#
 N Geom=AllCheck Guess=TCheck SCRF=Check GenChk RB3LYP/6-31G(d) Freq||C
 2H6 - opt + freq||0,1|C,0.,0.,-0.7653296787|H,0.0000000001,1.021009499
 3,-1.1644891277|H,-0.884220164,-0.5105047495,-1.1644891277|H,0.8842201
 638,-0.5105047498,-1.1644891277|C,0.,0.,0.7653296787|H,-0.8842201638,0
 .5105047498,1.1644891277|H,-0.0000000001,-1.0210094993,1.1644891277|H,
 0.884220164,0.5105047495,1.1644891277||Version=EM64W-G09RevD.01|State=
 1-A1G|HF=-79.8304174|RMSD=1.480e-010|RMSF=3.310e-005|ZeroPoint=0.07522
 9|Thermal=0.0786977|Dipole=0.,0.,0.|DipoleDeriv=0.1180167,0.,0.,0.,0.1
 179969,-0.0000399,0.,0.0000034,0.084186,0.0627183,0.,0.,0.,-0.1413865,
 0.0961063,0.,0.070223,-0.0280686,-0.0903639,-0.0883788,-0.0832206,-0.0
 883785,0.0116934,-0.0480432,-0.0608242,-0.0351123,-0.0280636,-0.090363
 9,0.0883788,0.0832206,0.0883785,0.0116934,-0.0480432,0.0608242,-0.0351
 123,-0.0280636,0.1180167,0.,0.,0.,0.1179969,-0.0000399,0.,0.0000034,0.
 084186,-0.0903639,0.0883788,0.0832206,0.0883785,0.0116934,-0.0480432,0
 .0608242,-0.0351123,-0.0280636,0.0627183,0.,0.,0.,-0.1413865,0.0961063
 ,0.,0.070223,-0.0280686,-0.0903639,-0.0883788,-0.0832206,-0.0883785,0.
 0116934,-0.0480432,-0.0608242,-0.0351123,-0.0280636|Polar=22.4190051,0
 .,22.4186592,0.,0.0000486,23.9399574|PG=D03D [C3(C1.C1),3SGD(H2)]|NIma
 g=0||0.57491859,0.,0.57492035,0.,-0.00000068,0.48186426,-0.05087906,0.
 ,0.,0.04845666,0.,-0.28006465,0.08591014,0.,0.30242754,0.,0.08526763,-
 0.08050525,0.,-0.09466922,0.08920408,-0.22276770,-0.09923986,-0.074399
 83,0.00091999,0.00063210,0.00135547,0.23893482,-0.09924001,-0.10817602
 ,-0.04295506,-0.02635388,-0.01393049,-0.01145828,0.10997262,0.11194938
 ,-0.07384268,-0.04263312,-0.08050503,0.01060089,0.00455527,0.00407065,
 0.08198595,0.04733461,0.08920408,-0.22276770,0.09923986,0.07439983,0.0
 0091999,-0.00063210,-0.00135547,-0.02135573,0.01349299,0.00924542,0.23
 893482,0.09924001,-0.10817602,-0.04295506,0.02635388,-0.01393049,-0.01
 145828,-0.01349299,0.00834522,0.00690301,-0.10997262,0.11194938,0.0738
 4268,-0.04263312,-0.08050503,-0.01060089,0.00455527,0.00407065,-0.0092
 4542,0.00690301,0.00407065,-0.08198595,0.04733461,0.08920408,-0.081710
 27,0.,0.,-0.00052274,0.,0.,0.00186309,0.00137744,-0.02907179,0.0018630
 9,-0.00137744,0.02907179,0.57491859,0.,-0.08170418,-0.00000272,0.,0.00
 265732,0.03356943,0.00137725,0.00027222,-0.01678456,-0.00137725,0.0002
 7222,-0.01678456,0.,0.57492035,0.,-0.00000272,-0.20253309,0.,-0.000619
 69,-0.01260617,0.00053718,0.00031068,-0.01260562,-0.00053718,0.0003106
 8,-0.01260562,0.,-0.00000068,0.48186426,0.00186309,-0.00137725,-0.0005
 3718,0.00004613,-0.00031375,0.00044615,0.00076918,-0.00010371,0.000438
 60,0.00159112,-0.00033332,-0.00065176,-0.22276770,0.09923986,0.0743998
 3,0.23893482,-0.00137744,0.00027222,0.00031068,-0.00052116,0.00052816,
 -0.00024887,0.00010371,-0.00019489,-0.00026194,-0.00033332,0.00120624,
 0.00037629,0.09924001,-0.10817602,-0.04295506,-0.10997262,0.11194938,0
 .02907179,-0.01678456,-0.01260562,0.00000755,0.00051081,0.00148847,-0.
 00043860,-0.00026194,0.00148847,-0.00065176,0.00037629,-0.00721090,0.0
 7384268,-0.04263312,-0.08050503,-0.08198595,0.04733461,0.08920408,-0.0
 0052274,0.,0.,0.00101380,0.,0.,0.00004613,0.00052116,-0.00000755,0.000
 04613,-0.00052116,0.00000755,-0.05087906,0.,0.,0.00091999,0.02635388,-
 0.01060089,0.04845666,0.,0.00265732,-0.00061969,0.,0.00178357,-0.00075
 259,0.00031375,0.00052816,0.00051081,-0.00031375,0.00052816,0.00051081
 ,0.,-0.28006465,0.08591014,-0.00063210,-0.01393049,0.00455527,0.,0.302
 42754,0.,0.03356943,-0.01260617,0.,-0.00075259,-0.00721090,-0.00044615
 ,-0.00024887,0.00148847,0.00044615,-0.00024887,0.00148847,0.,0.0852676
 3,-0.08050525,-0.00135547,-0.01145828,0.00407065,0.,-0.09466922,0.0892
 0408,0.00186309,0.00137725,0.00053718,0.00004613,0.00031375,-0.0004461
 5,0.00159112,0.00033332,0.00065176,0.00076918,0.00010371,-0.00043860,-
 0.22276770,-0.09923986,-0.07439983,-0.02135573,-0.01349299,-0.00924542
 ,0.00091999,0.00063210,0.00135547,0.23893482,0.00137744,0.00027222,0.0
 0031068,0.00052116,0.00052816,-0.00024887,0.00033332,0.00120624,0.0003
 7629,-0.00010371,-0.00019489,-0.00026194,-0.09924001,-0.10817602,-0.04
 295506,0.01349299,0.00834522,0.00690301,-0.02635388,-0.01393049,-0.011
 45828,0.10997262,0.11194938,-0.02907179,-0.01678456,-0.01260562,-0.000
 00755,0.00051081,0.00148847,0.00065176,0.00037629,-0.00721090,0.000438
 60,-0.00026194,0.00148847,-0.07384268,-0.04263312,-0.08050503,0.009245
 42,0.00690301,0.00407065,0.01060089,0.00455527,0.00407065,0.08198595,0
 .04733461,0.08920408||0.,0.,0.00001643,0.,0.00005815,-0.00003021,-0.00
 005036,-0.00002907,-0.00003021,0.00005036,-0.00002907,-0.00003021,0.,0
 .,-0.00001643,-0.00005036,0.00002907,0.00003021,0.,-0.00005815,0.00003
 021,0.00005036,0.00002907,0.00003021|||@


 GARBAGE IN, GARBAGE OUT
 Job cpu time:       0 days  0 hours  0 minutes 13.0 seconds.
 File lengths (MBytes):  RWF=      5 Int=      0 D2E=      0 Chk=      1 Scr=      1
 Normal termination of Gaussian 09 at Fri Dec 10 14:45:52 2021.
