 Entering Link 1 = C:\G09W\l1.exe PID=     16676.
  
 Copyright (c) 1988,1990,1992,1993,1995,1998,2003,2009,2013,
            Gaussian, Inc.  All Rights Reserved.
  
 This is part of the Gaussian(R) 09 program.  It is based on
 the Gaussian(R) 03 system (copyright 2003, Gaussian, Inc.),
 the Gaussian(R) 98 system (copyright 1998, Gaussian, Inc.),
 the Gaussian(R) 94 system (copyright 1995, Gaussian, Inc.),
 the Gaussian 92(TM) system (copyright 1992, Gaussian, Inc.),
 the Gaussian 90(TM) system (copyright 1990, Gaussian, Inc.),
 the Gaussian 88(TM) system (copyright 1988, Gaussian, Inc.),
 the Gaussian 86(TM) system (copyright 1986, Carnegie Mellon
 University), and the Gaussian 82(TM) system (copyright 1983,
 Carnegie Mellon University). Gaussian is a federally registered
 trademark of Gaussian, Inc.
  
 This software contains proprietary and confidential information,
 including trade secrets, belonging to Gaussian, Inc.
  
 This software is provided under written license and may be
 used, copied, transmitted, or stored only in accord with that
 written license.
  
 The following legend is applicable only to US Government
 contracts under FAR:
  
                    RESTRICTED RIGHTS LEGEND
  
 Use, reproduction and disclosure by the US Government is
 subject to restrictions as set forth in subparagraphs (a)
 and (c) of the Commercial Computer Software - Restricted
 Rights clause in FAR 52.227-19.
  
 Gaussian, Inc.
 340 Quinnipiac St., Bldg. 40, Wallingford CT 06492
  
  
 ---------------------------------------------------------------
 Warning -- This program may not be used in any manner that
 competes with the business of Gaussian, Inc. or will provide
 assistance to any competitor of Gaussian, Inc.  The licensee
 of this program is prohibited from giving any competitor of
 Gaussian, Inc. access to this program.  By using this program,
 the user acknowledges that Gaussian, Inc. is engaged in the
 business of creating and licensing software in the field of
 computational chemistry and represents and warrants to the
 licensee that it is not a competitor of Gaussian, Inc. and that
 it will not use this program in any manner prohibited above.
 ---------------------------------------------------------------
  

 Cite this work as:
 Gaussian 09, Revision D.01,
 M. J. Frisch, G. W. Trucks, H. B. Schlegel, G. E. Scuseria, 
 M. A. Robb, J. R. Cheeseman, G. Scalmani, V. Barone, B. Mennucci, 
 G. A. Petersson, H. Nakatsuji, M. Caricato, X. Li, H. P. Hratchian, 
 A. F. Izmaylov, J. Bloino, G. Zheng, J. L. Sonnenberg, M. Hada, 
 M. Ehara, K. Toyota, R. Fukuda, J. Hasegawa, M. Ishida, T. Nakajima, 
 Y. Honda, O. Kitao, H. Nakai, T. Vreven, J. A. Montgomery, Jr., 
 J. E. Peralta, F. Ogliaro, M. Bearpark, J. J. Heyd, E. Brothers, 
 K. N. Kudin, V. N. Staroverov, T. Keith, R. Kobayashi, J. Normand, 
 K. Raghavachari, A. Rendell, J. C. Burant, S. S. Iyengar, J. Tomasi, 
 M. Cossi, N. Rega, J. M. Millam, M. Klene, J. E. Knox, J. B. Cross, 
 V. Bakken, C. Adamo, J. Jaramillo, R. Gomperts, R. E. Stratmann, 
 O. Yazyev, A. J. Austin, R. Cammi, C. Pomelli, J. W. Ochterski, 
 R. L. Martin, K. Morokuma, V. G. Zakrzewski, G. A. Voth, 
 P. Salvador, J. J. Dannenberg, S. Dapprich, A. D. Daniels, 
 O. Farkas, J. B. Foresman, J. V. Ortiz, J. Cioslowski, 
 and D. J. Fox, Gaussian, Inc., Wallingford CT, 2013.
 
 ******************************************
 Gaussian 09:  EM64W-G09RevD.01 13-Apr-2013
                10-Dec-2021 
 ******************************************
 -------------------------
 # opt freq b3lyp/6-31g(d)
 -------------------------
 1/14=-1,18=20,19=15,26=3,38=1/1,3;
 2/9=110,12=2,17=6,18=5,40=1/2;
 3/5=1,6=6,7=1,11=2,16=1,25=1,30=1,71=1,74=-5/1,2,3;
 4//1;
 5/5=2,38=5/2;
 6/7=2,8=2,9=2,10=2,28=1/1;
 7//1,2,3,16;
 1/14=-1,18=20,19=15,26=3/3(2);
 2/9=110/2;
 99//99;
 2/9=110/2;
 3/5=1,6=6,7=1,11=2,16=1,25=1,30=1,71=1,74=-5/1,2,3;
 4/5=5,16=3,69=1/1;
 5/5=2,38=5/2;
 7//1,2,3,16;
 1/14=-1,18=20,19=15,26=3/3(-5);
 2/9=110/2;
 6/7=2,8=2,9=2,10=2,19=2,28=1/1;
 99/9=1/99;
 -----------------
 C3H6 - Opt + freq
 -----------------
 Symbolic Z-matrix:
 Charge =  0 Multiplicity = 1
 C                    -0.11102   1.497     0.09491 
 H                     0.60411   2.02153  -0.50372 
 H                     0.11365   1.64558   1.13045 
 C                    -0.05069  -0.0065   -0.23287 
 C                     0.03187  -1.2822    0.1341 
 H                    -0.80107  -1.52817   0.75909 
 H                     0.94193  -1.43975   0.67434 
 H                    -0.10073  -0.04393  -1.30105 
 H                     0.02116  -1.90501  -0.7359 
 

 GradGradGradGradGradGradGradGradGradGradGradGradGradGradGradGradGradGrad
 Berny optimization.
 Initialization pass.
                           ----------------------------
                           !    Initial Parameters    !
                           ! (Angstroms and Degrees)  !
 --------------------------                            --------------------------
 ! Name  Definition              Value          Derivative Info.                !
 --------------------------------------------------------------------------------
 ! R1    R(1,2)                  1.07           estimate D2E/DX2                !
 ! R2    R(1,3)                  1.07           estimate D2E/DX2                !
 ! R3    R(1,4)                  1.54           estimate D2E/DX2                !
 ! R4    R(4,5)                  1.33           estimate D2E/DX2                !
 ! R5    R(4,8)                  1.07           estimate D2E/DX2                !
 ! R6    R(5,6)                  1.07           estimate D2E/DX2                !
 ! R7    R(5,7)                  1.07           estimate D2E/DX2                !
 ! R8    R(5,9)                  1.07           estimate D2E/DX2                !
 ! A1    A(2,1,3)              109.4531         estimate D2E/DX2                !
 ! A2    A(2,1,4)              109.4712         estimate D2E/DX2                !
 ! A3    A(3,1,4)              109.4712         estimate D2E/DX2                !
 ! A4    A(1,4,5)              151.66           estimate D2E/DX2                !
 ! A5    A(1,4,8)              104.17           estimate D2E/DX2                !
 ! A6    A(5,4,8)              104.17           estimate D2E/DX2                !
 ! A7    A(4,5,6)              109.4712         estimate D2E/DX2                !
 ! A8    A(4,5,7)              109.4712         estimate D2E/DX2                !
 ! A9    A(4,5,9)              109.4712         estimate D2E/DX2                !
 ! A10   A(6,5,7)              109.4712         estimate D2E/DX2                !
 ! A11   A(6,5,9)              109.4712         estimate D2E/DX2                !
 ! A12   A(7,5,9)              109.4712         estimate D2E/DX2                !
 ! D1    D(2,1,4,5)            130.3378         estimate D2E/DX2                !
 ! D2    D(2,1,4,8)            -49.6622         estimate D2E/DX2                !
 ! D3    D(3,1,4,5)             10.36           estimate D2E/DX2                !
 ! D4    D(3,1,4,8)           -169.64           estimate D2E/DX2                !
 ! D5    D(1,4,5,6)             60.0            estimate D2E/DX2                !
 ! D6    D(1,4,5,7)            -60.0            estimate D2E/DX2                !
 ! D7    D(1,4,5,9)            180.0            estimate D2E/DX2                !
 ! D8    D(8,4,5,6)           -120.0            estimate D2E/DX2                !
 ! D9    D(8,4,5,7)            120.0            estimate D2E/DX2                !
 ! D10   D(8,4,5,9)              0.0            estimate D2E/DX2                !
 --------------------------------------------------------------------------------
 Trust Radius=3.00D-01 FncErr=1.00D-07 GrdErr=1.00D-06
 Number of steps in this run=     40 maximum allowed number of steps=    100.
 GradGradGradGradGradGradGradGradGradGradGradGradGradGradGradGradGradGrad

                          Input orientation:                          
 ---------------------------------------------------------------------
 Center     Atomic      Atomic             Coordinates (Angstroms)
 Number     Number       Type             X           Y           Z
 ---------------------------------------------------------------------
      1          6           0       -0.111022    1.497000    0.094907
      2          1           0        0.604112    2.021528   -0.503719
      3          1           0        0.113654    1.645580    1.130447
      4          6           0       -0.050689   -0.006503   -0.232874
      5          6           0        0.031868   -1.282205    0.134099
      6          1           0       -0.801072   -1.528169    0.759089
      7          1           0        0.941933   -1.439749    0.674341
      8          1           0       -0.100727   -0.043931   -1.301048
      9          1           0        0.021161   -1.905012   -0.735899
 ---------------------------------------------------------------------
                    Distance matrix (angstroms):
                    1          2          3          4          5
     1  C    0.000000
     2  H    1.070000   0.000000
     3  H    1.070000   1.747108   0.000000
     4  C    1.540000   2.148263   2.148263   0.000000
     5  C    2.783151   3.413052   3.093756   1.330000   0.000000
     6  H    3.173162   4.021141   3.323750   1.965333   1.070000
     7  H    3.173162   3.671837   3.226971   1.965333   1.070000
     8  H    2.079246   2.323501   2.968598   1.070000   1.900144
     9  H    3.504482   3.976362   4.012295   1.965333   1.070000
                    6          7          8          9
     6  H    0.000000
     7  H    1.747303   0.000000
     8  H    2.633934   2.633934   0.000000
     9  H    1.747303   1.747303   1.948813   0.000000
 Stoichiometry    C3H6
 Framework group  C1[X(C3H6)]
 Deg. of freedom    21
 Full point group                 C1      NOp   1
 Largest Abelian subgroup         C1      NOp   1
 Largest concise Abelian subgroup C1      NOp   1
                         Standard orientation:                         
 ---------------------------------------------------------------------
 Center     Atomic      Atomic             Coordinates (Angstroms)
 Number     Number       Type             X           Y           Z
 ---------------------------------------------------------------------
      1          6           0       -1.497000   -0.094907   -0.111022
      2          1           0       -2.021528    0.503719    0.604112
      3          1           0       -1.645580   -1.130447    0.113654
      4          6           0        0.006503    0.232874   -0.050689
      5          6           0        1.282205   -0.134099    0.031868
      6          1           0        1.528169   -0.759089   -0.801072
      7          1           0        1.439749   -0.674341    0.941933
      8          1           0        0.043931    1.301048   -0.100727
      9          1           0        1.905012    0.735899    0.021161
 ---------------------------------------------------------------------
 Rotational constants (GHZ):     64.0277783      7.9407405      7.5017454
 Standard basis: 6-31G(d) (6D, 7F)
 There are    57 symmetry adapted cartesian basis functions of A   symmetry.
 There are    57 symmetry adapted basis functions of A   symmetry.
    57 basis functions,   108 primitive gaussians,    57 cartesian basis functions
    12 alpha electrons       12 beta electrons
       nuclear repulsion energy        70.3619284576 Hartrees.
 NAtoms=    9 NActive=    9 NUniq=    9 SFac= 1.00D+00 NAtFMM=   60 NAOKFM=F Big=F
 Integral buffers will be    131072 words long.
 Raffenetti 2 integral format.
 Two-electron integral symmetry is turned on.
 One-electron integrals computed using PRISM.
 NBasis=    57 RedAO= T EigKep=  3.37D-03  NBF=    57
 NBsUse=    57 1.00D-06 EigRej= -1.00D+00 NBFU=    57
 ExpMin= 1.61D-01 ExpMax= 3.05D+03 ExpMxC= 4.57D+02 IAcc=1 IRadAn=         1 AccDes= 0.00D+00
 Harris functional with IExCor=  402 and IRadAn=       1 diagonalized for initial guess.
 HarFok:  IExCor=  402 AccDes= 0.00D+00 IRadAn=         1 IDoV= 1 UseB2=F ITyADJ=14
 ICtDFT=  3500011 ScaDFX=  1.000000  1.000000  1.000000  1.000000
 FoFCou: FMM=F IPFlag=           0 FMFlag=      100000 FMFlg1=           0
         NFxFlg=           0 DoJE=T BraDBF=F KetDBF=T FulRan=T
         wScrn=  0.000000 ICntrl=     500 IOpCl=  0 I1Cent=   200000004 NGrid=           0
         NMat0=    1 NMatS0=      1 NMatT0=    0 NMatD0=    1 NMtDS0=    0 NMtDT0=    0
 Petite list used in FoFCou.
 Keep R1 ints in memory in canonical form, NReq=2273549.
 Requested convergence on RMS density matrix=1.00D-08 within 128 cycles.
 Requested convergence on MAX density matrix=1.00D-06.
 Requested convergence on             energy=1.00D-06.
 No special actions if energy rises.
 Integral accuracy reduced to 1.0D-05 until final iterations.
 Initial convergence to 1.0D-05 achieved.  Increase integral accuracy.
 SCF Done:  E(RB3LYP) =  -117.796545490     A.U. after   13 cycles
            NFock= 13  Conv=0.28D-08     -V/T= 2.0073

 **********************************************************************

            Population analysis using the SCF density.

 **********************************************************************

 Orbital symmetries:
       Occupied  (A) (A) (A) (A) (A) (A) (A) (A) (A) (A) (A) (A)
       Virtual   (A) (A) (A) (A) (A) (A) (A) (A) (A) (A) (A) (A)
                 (A) (A) (A) (A) (A) (A) (A) (A) (A) (A) (A) (A)
                 (A) (A) (A) (A) (A) (A) (A) (A) (A) (A) (A) (A)
                 (A) (A) (A) (A) (A) (A) (A) (A) (A)
 The electronic state is 1-A.
 Alpha  occ. eigenvalues --  -10.20371 -10.18228 -10.17585  -0.81675  -0.67795
 Alpha  occ. eigenvalues --   -0.55804  -0.47223  -0.45066  -0.41324  -0.38254
 Alpha  occ. eigenvalues --   -0.30221  -0.21935
 Alpha virt. eigenvalues --   -0.03524   0.08907   0.13240   0.16195   0.17713
 Alpha virt. eigenvalues --    0.19862   0.20447   0.26557   0.32210   0.47579
 Alpha virt. eigenvalues --    0.55786   0.56591   0.60482   0.61381   0.66956
 Alpha virt. eigenvalues --    0.72841   0.77861   0.79089   0.84039   0.86492
 Alpha virt. eigenvalues --    0.88747   0.92608   0.95428   0.97599   0.99709
 Alpha virt. eigenvalues --    1.09853   1.36999   1.41054   1.58063   1.60236
 Alpha virt. eigenvalues --    1.87037   1.91045   1.99619   2.06819   2.12266
 Alpha virt. eigenvalues --    2.20851   2.22572   2.33890   2.38431   2.52396
 Alpha virt. eigenvalues --    2.60896   2.96235   4.06323   4.25532   4.46034
          Condensed to atoms (all electrons):
               1          2          3          4          5          6
     1  C    5.142855   0.364229   0.372407   0.586698  -0.045927  -0.001064
     2  H    0.364229   0.559158  -0.053174  -0.017869   0.005156  -0.000003
     3  H    0.372407  -0.053174   0.610966  -0.057323  -0.005789   0.001607
     4  C    0.586698  -0.017869  -0.057323   4.944897   0.363805  -0.035050
     5  C   -0.045927   0.005156  -0.005789   0.363805   5.169232   0.344016
     6  H   -0.001064  -0.000003   0.001607  -0.035050   0.344016   0.538605
     7  H   -0.007178  -0.000322   0.000752  -0.051164   0.379384  -0.016912
     8  H   -0.049217  -0.008012   0.007446   0.386708  -0.107334   0.009909
     9  H    0.005105  -0.000179  -0.000209  -0.027654   0.389865  -0.027686
               7          8          9
     1  C   -0.007178  -0.049217   0.005105
     2  H   -0.000322  -0.008012  -0.000179
     3  H    0.000752   0.007446  -0.000209
     4  C   -0.051164   0.386708  -0.027654
     5  C    0.379384  -0.107334   0.389865
     6  H   -0.016912   0.009909  -0.027686
     7  H    0.531814   0.008684  -0.036378
     8  H    0.008684   0.650623  -0.030014
     9  H   -0.036378  -0.030014   0.557227
 Mulliken charges:
               1
     1  C   -0.367909
     2  H    0.151017
     3  H    0.123317
     4  C   -0.093048
     5  C   -0.492407
     6  H    0.186580
     7  H    0.191320
     8  H    0.131208
     9  H    0.169922
 Sum of Mulliken charges =   0.00000
 Mulliken charges with hydrogens summed into heavy atoms:
               1
     1  C   -0.093575
     4  C    0.038160
     5  C    0.055415
 Electronic spatial extent (au):  <R**2>=            207.2843
 Charge=              0.0000 electrons
 Dipole moment (field-independent basis, Debye):
    X=              1.7449    Y=              0.0220    Z=              0.7349  Tot=              1.8934
 Quadrupole moment (field-independent basis, Debye-Ang):
   XX=            -20.6362   YY=            -19.2674   ZZ=            -20.6367
   XY=              0.1449   XZ=             -1.6291   YZ=              0.1801
 Traceless Quadrupole moment (field-independent basis, Debye-Ang):
   XX=             -0.4561   YY=              0.9127   ZZ=             -0.4566
   XY=              0.1449   XZ=             -1.6291   YZ=              0.1801
 Octapole moment (field-independent basis, Debye-Ang**2):
  XXX=              5.4384  YYY=              0.2415  ZZZ=              1.5718  XYY=              1.4849
  XXY=              0.7012  XXZ=              3.5803  XZZ=              2.8244  YZZ=             -0.6735
  YYZ=              0.3983  XYZ=             -0.4315
 Hexadecapole moment (field-independent basis, Debye-Ang**3):
 XXXX=           -218.0374 YYYY=            -42.9168 ZZZZ=            -29.9234 XXXY=              0.6247
 XXXZ=             -7.9670 YYYX=              1.3017 YYYZ=              0.0071 ZZZX=             -2.2305
 ZZZY=              0.1620 XXYY=            -40.8932 XXZZ=            -40.3377 YYZZ=            -12.0501
 XXYZ=              0.9599 YYXZ=             -1.0990 ZZXY=             -1.4086
 N-N= 7.036192845760D+01 E-N=-4.127716996957D+02  KE= 1.169375696139D+02
 Calling FoFJK, ICntrl=      2127 FMM=F ISym2X=0 I1Cent= 0 IOpClX= 0 NMat=1 NMatS=1 NMatT=0.
 ***** Axes restored to original set *****
 -------------------------------------------------------------------
 Center     Atomic                   Forces (Hartrees/Bohr)
 Number     Number              X              Y              Z
 -------------------------------------------------------------------
      1        6           0.026430902   -0.141831821    0.016233365
      2        1          -0.010693889    0.014707621   -0.024883779
      3        1          -0.007758768    0.012057253    0.020105019
      4        6          -0.009472501    0.249100809   -0.075485639
      5        6          -0.007401024   -0.101634001    0.057396254
      6        1          -0.012477556   -0.018016524    0.019667442
      7        1           0.015012908   -0.011862759    0.016188985
      8        1           0.006108731    0.015752200   -0.023570907
      9        1           0.000251197   -0.018272779   -0.005650740
 -------------------------------------------------------------------
 Cartesian Forces:  Max     0.249100809 RMS     0.062910240

 GradGradGradGradGradGradGradGradGradGradGradGradGradGradGradGradGradGrad
 Berny optimization.
 FormGI is forming the generalized inverse of G from B-inverse, IUseBI=4.
 Internal  Forces:  Max     0.167556498 RMS     0.041664873
 Search for a local minimum.
 Step number   1 out of a maximum of   40
 All quantities printed in internal units (Hartrees-Bohrs-Radians)
 Mixed Optimization -- RFO/linear search
 Second derivative matrix not updated -- first step.
 ITU=  0
     Eigenvalues ---    0.00237   0.01904   0.03015   0.05089   0.08786
     Eigenvalues ---    0.08786   0.16000   0.16000   0.16000   0.16000
     Eigenvalues ---    0.16000   0.16000   0.22000   0.28519   0.37230
     Eigenvalues ---    0.37230   0.37230   0.37230   0.37230   0.37230
     Eigenvalues ---    0.59506
 RFO step:  Lambda=-1.10927821D-01 EMin= 2.36824451D-03
 Linear search not attempted -- first point.
 Maximum step size (   0.300) exceeded in Quadratic search.
    -- Step size scaled by   0.612
 Iteration  1 RMS(Cart)=  0.07622055 RMS(Int)=  0.00391355
 Iteration  2 RMS(Cart)=  0.00476130 RMS(Int)=  0.00132072
 Iteration  3 RMS(Cart)=  0.00000992 RMS(Int)=  0.00132067
 Iteration  4 RMS(Cart)=  0.00000002 RMS(Int)=  0.00132067
 Variable       Old X    -DE/DX   Delta X   Delta X   Delta X     New X
                                 (Linear)    (Quad)   (Total)
    R1        2.02201   0.01398   0.00000   0.01771   0.01771   2.03972
    R2        2.02201   0.01950   0.00000   0.02470   0.02470   2.04670
    R3        2.91018  -0.11021   0.00000  -0.17027  -0.17027   2.73991
    R4        2.51334   0.16756   0.00000   0.14524   0.14524   2.65858
    R5        2.02201   0.02269   0.00000   0.02874   0.02874   2.05075
    R6        2.02201   0.02534   0.00000   0.03209   0.03209   2.05410
    R7        2.02201   0.02269   0.00000   0.02874   0.02874   2.05074
    R8        2.02201   0.01523   0.00000   0.01928   0.01928   2.04129
    A1        1.91032   0.00637   0.00000   0.04008   0.03534   1.94566
    A2        1.91063   0.01352   0.00000   0.04339   0.04048   1.95111
    A3        1.91063   0.02432   0.00000   0.06778   0.06492   1.97555
    A4        2.64697  -0.06269   0.00000  -0.11594  -0.11594   2.53103
    A5        1.81811   0.01500   0.00000   0.02105   0.02105   1.83915
    A6        1.81811   0.04769   0.00000   0.09489   0.09489   1.91300
    A7        1.91063   0.01557   0.00000   0.03486   0.03442   1.94506
    A8        1.91063   0.00751   0.00000   0.01607   0.01583   1.92646
    A9        1.91063   0.01296   0.00000   0.03047   0.02997   1.94060
   A10        1.91063  -0.01517   0.00000  -0.03666  -0.03683   1.87380
   A11        1.91063  -0.01154   0.00000  -0.02428  -0.02493   1.88570
   A12        1.91063  -0.00932   0.00000  -0.02046  -0.02075   1.88988
    D1        2.27482   0.02315   0.00000   0.09996   0.10170   2.37652
    D2       -0.86677   0.02309   0.00000   0.09966   0.10140  -0.76537
    D3        0.18082  -0.00782   0.00000  -0.01717  -0.01891   0.16190
    D4       -2.96078  -0.00788   0.00000  -0.01747  -0.01921  -2.97998
    D5        1.04720  -0.00284   0.00000  -0.00906  -0.00925   1.03795
    D6       -1.04720   0.00161   0.00000   0.00464   0.00469  -1.04251
    D7        3.14159   0.00049   0.00000   0.00120   0.00134  -3.14025
    D8       -2.09440  -0.00278   0.00000  -0.00876  -0.00895  -2.10334
    D9        2.09440   0.00168   0.00000   0.00494   0.00499   2.09938
   D10        0.00000   0.00056   0.00000   0.00150   0.00164   0.00164
         Item               Value     Threshold  Converged?
 Maximum Force            0.167556     0.000450     NO 
 RMS     Force            0.041665     0.000300     NO 
 Maximum Displacement     0.202490     0.001800     NO 
 RMS     Displacement     0.077434     0.001200     NO 
 Predicted change in Energy=-5.328914D-02
 GradGradGradGradGradGradGradGradGradGradGradGradGradGradGradGradGradGrad

                          Input orientation:                          
 ---------------------------------------------------------------------
 Center     Atomic      Atomic             Coordinates (Angstroms)
 Number     Number       Type             X           Y           Z
 ---------------------------------------------------------------------
      1          6           0       -0.080026    1.439592    0.100120
      2          1           0        0.564234    2.052300   -0.511893
      3          1           0        0.122194    1.581659    1.154616
      4          6           0       -0.043990    0.048132   -0.305758
      5          6           0        0.027855   -1.282596    0.145083
      6          1           0       -0.806581   -1.526730    0.797501
      7          1           0        0.939418   -1.440716    0.712291
      8          1           0       -0.093184    0.063222   -1.389746
      9          1           0        0.019297   -1.976325   -0.682871
 ---------------------------------------------------------------------
                    Distance matrix (angstroms):
                    1          2          3          4          5
     1  C    0.000000
     2  H    1.079372   0.000000
     3  H    1.083069   1.787220   0.000000
     4  C    1.449895   2.104548   2.124151   0.000000
     5  C    2.724695   3.441054   3.038422   1.406860   0.000000
     6  H    3.132617   4.050075   3.263776   2.068554   1.086983
     7  H    3.116118   3.720289   3.162002   2.054308   1.085206
     8  H    2.028365   2.271400   2.970828   1.085209   2.044891
     9  H    3.505913   4.068908   4.005770   2.060253   1.080205
                    6          7          8          9
     6  H    0.000000
     7  H    1.750191   0.000000
     8  H    2.796593   2.783281   0.000000
     9  H    1.753771   1.754985   2.161499   0.000000
 Stoichiometry    C3H6
 Framework group  C1[X(C3H6)]
 Deg. of freedom    21
 Full point group                 C1      NOp   1
 Largest Abelian subgroup         C1      NOp   1
 Largest concise Abelian subgroup C1      NOp   1
                         Standard orientation:                         
 ---------------------------------------------------------------------
 Center     Atomic      Atomic             Coordinates (Angstroms)
 Number     Number       Type             X           Y           Z
 ---------------------------------------------------------------------
      1          6           0       -1.437398   -0.135446   -0.099840
      2          1           0       -2.065453    0.456383    0.548487
      3          1           0       -1.562665   -1.195092    0.085896
      4          6           0       -0.053499    0.293781   -0.047099
      5          6           0        1.284273   -0.135063    0.028501
      6          1           0        1.545947   -0.770846   -0.813425
      7          1           0        1.445359   -0.712792    0.932908
      8          1           0       -0.087022    1.377954   -0.080620
      9          1           0        1.963579    0.704762    0.037385
 ---------------------------------------------------------------------
 Rotational constants (GHZ):     58.5219801      8.1831302      7.6087757
 Standard basis: 6-31G(d) (6D, 7F)
 There are    57 symmetry adapted cartesian basis functions of A   symmetry.
 There are    57 symmetry adapted basis functions of A   symmetry.
    57 basis functions,   108 primitive gaussians,    57 cartesian basis functions
    12 alpha electrons       12 beta electrons
       nuclear repulsion energy        70.0072188777 Hartrees.
 NAtoms=    9 NActive=    9 NUniq=    9 SFac= 1.00D+00 NAtFMM=   60 NAOKFM=F Big=F
 Integral buffers will be    131072 words long.
 Raffenetti 2 integral format.
 Two-electron integral symmetry is turned on.
 One-electron integrals computed using PRISM.
 NBasis=    57 RedAO= T EigKep=  4.85D-03  NBF=    57
 NBsUse=    57 1.00D-06 EigRej= -1.00D+00 NBFU=    57
 Initial guess from the checkpoint file:  "C:\Work\Gau-16676.chk"
 B after Tr=     0.000000    0.000000    0.000000
         Rot=    0.999923   -0.008044    0.000808   -0.009378 Ang=  -1.42 deg.
 ExpMin= 1.61D-01 ExpMax= 3.05D+03 ExpMxC= 4.57D+02 IAcc=1 IRadAn=         1 AccDes= 0.00D+00
 Harris functional with IExCor=  402 and IRadAn=       1 diagonalized for initial guess.
 HarFok:  IExCor=  402 AccDes= 0.00D+00 IRadAn=         1 IDoV= 1 UseB2=F ITyADJ=14
 ICtDFT=  3500011 ScaDFX=  1.000000  1.000000  1.000000  1.000000
 FoFCou: FMM=F IPFlag=           0 FMFlag=      100000 FMFlg1=           0
         NFxFlg=           0 DoJE=T BraDBF=F KetDBF=T FulRan=T
         wScrn=  0.000000 ICntrl=     500 IOpCl=  0 I1Cent=   200000004 NGrid=           0
         NMat0=    1 NMatS0=      1 NMatT0=    0 NMatD0=    1 NMtDS0=    0 NMtDT0=    0
 Petite list used in FoFCou.
 Keep R1 ints in memory in canonical form, NReq=2273549.
 Requested convergence on RMS density matrix=1.00D-08 within 128 cycles.
 Requested convergence on MAX density matrix=1.00D-06.
 Requested convergence on             energy=1.00D-06.
 No special actions if energy rises.
 Integral accuracy reduced to 1.0D-05 until final iterations.
 Initial convergence to 1.0D-05 achieved.  Increase integral accuracy.
 SCF Done:  E(RB3LYP) =  -117.850770189     A.U. after   12 cycles
            NFock= 12  Conv=0.32D-08     -V/T= 2.0096
 Calling FoFJK, ICntrl=      2127 FMM=F ISym2X=0 I1Cent= 0 IOpClX= 0 NMat=1 NMatS=1 NMatT=0.
 ***** Axes restored to original set *****
 -------------------------------------------------------------------
 Center     Atomic                   Forces (Hartrees/Bohr)
 Number     Number              X              Y              Z
 -------------------------------------------------------------------
      1        6           0.035364042   -0.105982814    0.015352001
      2        1          -0.017870584    0.013924038   -0.015705919
      3        1          -0.008522045    0.008982882    0.009780272
      4        6          -0.007784260    0.141657897   -0.048610025
      5        6          -0.010030593   -0.039601608    0.038372828
      6        1          -0.004677372   -0.007643000    0.008859880
      7        1           0.006548954   -0.004589866    0.007254964
      8        1           0.007183694    0.000134479   -0.010457406
      9        1          -0.000211836   -0.006882009   -0.004846595
 -------------------------------------------------------------------
 Cartesian Forces:  Max     0.141657897 RMS     0.038425812

 GradGradGradGradGradGradGradGradGradGradGradGradGradGradGradGradGradGrad
 Berny optimization.
 Using GEDIIS/GDIIS optimizer.
 FormGI is forming the generalized inverse of G from B-inverse, IUseBI=4.
 Internal  Forces:  Max     0.077311237 RMS     0.023725235
 Search for a local minimum.
 Step number   2 out of a maximum of   40
 All quantities printed in internal units (Hartrees-Bohrs-Radians)
 Mixed Optimization -- RFO/linear search
 Update second derivatives using D2CorX and points    1    2
 DE= -5.42D-02 DEPred=-5.33D-02 R= 1.02D+00
 TightC=F SS=  1.41D+00  RLast= 3.32D-01 DXNew= 5.0454D-01 9.9665D-01
 Trust test= 1.02D+00 RLast= 3.32D-01 DXMaxT set to 5.05D-01
 ITU=  1  0
 Use linear search instead of GDIIS.
     Eigenvalues ---    0.00236   0.01934   0.03015   0.03720   0.08483
     Eigenvalues ---    0.08600   0.14843   0.16000   0.16000   0.16000
     Eigenvalues ---    0.16000   0.16734   0.20234   0.26120   0.37220
     Eigenvalues ---    0.37230   0.37230   0.37230   0.37230   0.37994
     Eigenvalues ---    0.70198
 RFO step:  Lambda=-5.04762535D-02 EMin= 2.36284872D-03
 Quartic linear search produced a step of  1.66811.
 Iteration  1 RMS(Cart)=  0.11832789 RMS(Int)=  0.10211872
 Iteration  2 RMS(Cart)=  0.09629634 RMS(Int)=  0.03906979
 Iteration  3 RMS(Cart)=  0.02910399 RMS(Int)=  0.02978759
 Iteration  4 RMS(Cart)=  0.00139575 RMS(Int)=  0.02975137
 Iteration  5 RMS(Cart)=  0.00008526 RMS(Int)=  0.02975120
 Iteration  6 RMS(Cart)=  0.00000712 RMS(Int)=  0.02975120
 Iteration  7 RMS(Cart)=  0.00000059 RMS(Int)=  0.02975120
 Variable       Old X    -DE/DX   Delta X   Delta X   Delta X     New X
                                 (Linear)    (Quad)   (Total)
    R1        2.03972   0.00614   0.02954  -0.00806   0.02148   2.06120
    R2        2.04670   0.00911   0.04120  -0.00807   0.03312   2.07983
    R3        2.73991  -0.07731  -0.28403  -0.13321  -0.41724   2.32266
    R4        2.65858   0.07102   0.24228  -0.07466   0.16762   2.82620
    R5        2.05075   0.01012   0.04794  -0.01218   0.03576   2.08651
    R6        2.05410   0.01062   0.05354  -0.01755   0.03599   2.09009
    R7        2.05074   0.00996   0.04793  -0.01310   0.03484   2.08558
    R8        2.04129   0.00814   0.03217  -0.00035   0.03182   2.07311
    A1        1.94566   0.00182   0.05896   0.09771   0.06097   2.00663
    A2        1.95111   0.01678   0.06752   0.18225   0.15789   2.10900
    A3        1.97555   0.01887   0.10829   0.13844   0.15495   2.13051
    A4        2.53103  -0.04708  -0.19340  -0.12335  -0.31677   2.21426
    A5        1.83915   0.02385   0.03511   0.16693   0.20201   2.04116
    A6        1.91300   0.02323   0.15829  -0.04359   0.11468   2.02769
    A7        1.94506   0.00777   0.05742  -0.00212   0.05439   1.99945
    A8        1.92646   0.00306   0.02640  -0.00832   0.01746   1.94392
    A9        1.94060   0.00113   0.04999  -0.06747  -0.01821   1.92239
   A10        1.87380  -0.00649  -0.06144   0.02474  -0.03746   1.83634
   A11        1.88570  -0.00375  -0.04159   0.02911  -0.01341   1.87229
   A12        1.88988  -0.00238  -0.03462   0.02882  -0.00617   1.88371
    D1        2.37652   0.02392   0.16964   0.38339   0.56463   2.94115
    D2       -0.76537   0.02352   0.16915   0.37023   0.55073  -0.21463
    D3        0.16190  -0.00808  -0.03155  -0.01582  -0.05873   0.10318
    D4       -2.97998  -0.00849  -0.03204  -0.02898  -0.07262  -3.05260
    D5        1.03795  -0.00125  -0.01543   0.00107  -0.01435   1.02360
    D6       -1.04251  -0.00014   0.00782  -0.02310  -0.01534  -1.05785
    D7       -3.14025   0.00006   0.00223  -0.00958  -0.00706   3.13587
    D8       -2.10334  -0.00083  -0.01493   0.01452  -0.00056  -2.10390
    D9        2.09938   0.00027   0.00832  -0.00965  -0.00155   2.09783
   D10        0.00164   0.00048   0.00274   0.00387   0.00673   0.00837
         Item               Value     Threshold  Converged?
 Maximum Force            0.077311     0.000450     NO 
 RMS     Force            0.023725     0.000300     NO 
 Maximum Displacement     0.538198     0.001800     NO 
 RMS     Displacement     0.215100     0.001200     NO 
 Predicted change in Energy=-6.445843D-02
 GradGradGradGradGradGradGradGradGradGradGradGradGradGradGradGradGradGrad

                          Input orientation:                          
 ---------------------------------------------------------------------
 Center     Atomic      Atomic             Coordinates (Angstroms)
 Number     Number       Type             X           Y           Z
 ---------------------------------------------------------------------
      1          6           0        0.078652    1.221861    0.094608
      2          1           0        0.279432    2.135160   -0.466893
      3          1           0        0.199891    1.310614    1.184901
      4          6           0        0.036072    0.131273   -0.470627
      5          6           0        0.011432   -1.215652    0.178899
      6          1           0       -0.838493   -1.378392    0.867693
      7          1           0        0.915304   -1.384563    0.789235
      8          1           0       -0.000520    0.140660   -1.574114
      9          1           0       -0.032552   -2.002422   -0.584358
 ---------------------------------------------------------------------
                    Distance matrix (angstroms):
                    1          2          3          4          5
     1  C    0.000000
     2  H    1.090739   0.000000
     3  H    1.100597   1.847871   0.000000
     4  C    1.229099   2.018614   2.039228   0.000000
     5  C    2.439896   3.422983   2.725725   1.495560   0.000000
     6  H    2.863587   3.921215   2.899934   2.198876   1.106027
     7  H    2.824170   3.790863   2.816442   2.158254   1.103641
     8  H    1.989948   2.298334   3.003517   1.104133   2.216479
     9  H    3.296871   4.150990   3.763045   2.137826   1.097043
                    6          7          8          9
     6  H    0.000000
     7  H    1.755562   0.000000
     8  H    2.995353   2.958117   0.000000
     9  H    1.774093   1.779589   2.360814   0.000000
 Stoichiometry    C3H6
 Framework group  C1[X(C3H6)]
 Deg. of freedom    21
 Full point group                 C1      NOp   1
 Largest Abelian subgroup         C1      NOp   1
 Largest concise Abelian subgroup C1      NOp   1
                         Standard orientation:                         
 ---------------------------------------------------------------------
 Center     Atomic      Atomic             Coordinates (Angstroms)
 Number     Number       Type             X           Y           Z
 ---------------------------------------------------------------------
      1          6           0       -1.223819   -0.221218   -0.037043
      2          1           0       -2.182629    0.267208    0.141382
      3          1           0       -1.240070   -1.318977    0.040256
      4          6           0       -0.175351    0.419546   -0.008377
      5          6           0        1.214120   -0.133503    0.005969
      6          1           0        1.462448   -0.775236   -0.859945
      7          1           0        1.386269   -0.765879    0.893939
      8          1           0       -0.261540    1.520305   -0.005253
      9          1           0        1.945817    0.683631    0.026321
 ---------------------------------------------------------------------
 Rotational constants (GHZ):     48.9767307      9.7336852      8.5564021
 Standard basis: 6-31G(d) (6D, 7F)
 There are    57 symmetry adapted cartesian basis functions of A   symmetry.
 There are    57 symmetry adapted basis functions of A   symmetry.
    57 basis functions,   108 primitive gaussians,    57 cartesian basis functions
    12 alpha electrons       12 beta electrons
       nuclear repulsion energy        72.2877487207 Hartrees.
 NAtoms=    9 NActive=    9 NUniq=    9 SFac= 1.00D+00 NAtFMM=   60 NAOKFM=F Big=F
 Integral buffers will be    131072 words long.
 Raffenetti 2 integral format.
 Two-electron integral symmetry is turned on.
 One-electron integrals computed using PRISM.
 NBasis=    57 RedAO= T EigKep=  4.00D-03  NBF=    57
 NBsUse=    57 1.00D-06 EigRej= -1.00D+00 NBFU=    57
 Initial guess from the checkpoint file:  "C:\Work\Gau-16676.chk"
 B after Tr=     0.000000    0.000000    0.000000
         Rot=    0.999588   -0.013410    0.001975   -0.025290 Ang=  -3.29 deg.
 ExpMin= 1.61D-01 ExpMax= 3.05D+03 ExpMxC= 4.57D+02 IAcc=1 IRadAn=         1 AccDes= 0.00D+00
 Harris functional with IExCor=  402 and IRadAn=       1 diagonalized for initial guess.
 HarFok:  IExCor=  402 AccDes= 0.00D+00 IRadAn=         1 IDoV= 1 UseB2=F ITyADJ=14
 ICtDFT=  3500011 ScaDFX=  1.000000  1.000000  1.000000  1.000000
 FoFCou: FMM=F IPFlag=           0 FMFlag=      100000 FMFlg1=           0
         NFxFlg=           0 DoJE=T BraDBF=F KetDBF=T FulRan=T
         wScrn=  0.000000 ICntrl=     500 IOpCl=  0 I1Cent=   200000004 NGrid=           0
         NMat0=    1 NMatS0=      1 NMatT0=    0 NMatD0=    1 NMtDS0=    0 NMtDT0=    0
 Petite list used in FoFCou.
 Keep R1 ints in memory in canonical form, NReq=2273549.
 Requested convergence on RMS density matrix=1.00D-08 within 128 cycles.
 Requested convergence on MAX density matrix=1.00D-06.
 Requested convergence on             energy=1.00D-06.
 No special actions if energy rises.
 Integral accuracy reduced to 1.0D-05 until final iterations.
 Initial convergence to 1.0D-05 achieved.  Increase integral accuracy.
 SCF Done:  E(RB3LYP) =  -117.886124080     A.U. after   13 cycles
            NFock= 13  Conv=0.40D-08     -V/T= 2.0074
 Calling FoFJK, ICntrl=      2127 FMM=F ISym2X=0 I1Cent= 0 IOpClX= 0 NMat=1 NMatS=1 NMatT=0.
 ***** Axes restored to original set *****
 -------------------------------------------------------------------
 Center     Atomic                   Forces (Hartrees/Bohr)
 Number     Number              X              Y              Z
 -------------------------------------------------------------------
      1        6           0.027402164    0.146017729    0.082073010
      2        1          -0.009265634    0.002571792    0.002832730
      3        1          -0.005614331    0.001759870   -0.004712027
      4        6          -0.014009527   -0.133389739   -0.087424211
      5        6          -0.000828019   -0.015402971    0.006690140
      6        1           0.001852784    0.004157615   -0.005281835
      7        1          -0.001793657    0.000443333   -0.003965920
      8        1           0.001689668   -0.005086683    0.006344152
      9        1           0.000566553   -0.001070944    0.003443961
 -------------------------------------------------------------------
 Cartesian Forces:  Max     0.146017729 RMS     0.045145931

 GradGradGradGradGradGradGradGradGradGradGradGradGradGradGradGradGradGrad
 Berny optimization.
 Using GEDIIS/GDIIS optimizer.
 FormGI is forming the generalized inverse of G from B-inverse, IUseBI=4.
 Internal  Forces:  Max     0.170719039 RMS     0.031501259
 Search for a local minimum.
 Step number   3 out of a maximum of   40
 All quantities printed in internal units (Hartrees-Bohrs-Radians)
 Mixed Optimization -- RFO/linear search
 Update second derivatives using D2CorX and points    2    3
 DE= -3.54D-02 DEPred=-6.45D-02 R= 5.48D-01
 TightC=F SS=  1.41D+00  RLast= 1.03D+00 DXNew= 8.4853D-01 3.0772D+00
 Trust test= 5.48D-01 RLast= 1.03D+00 DXMaxT set to 8.49D-01
 ITU=  1  1  0
 Use linear search instead of GDIIS.
     Eigenvalues ---    0.00249   0.00678   0.01895   0.03015   0.08215
     Eigenvalues ---    0.08519   0.14846   0.15998   0.16000   0.16000
     Eigenvalues ---    0.16040   0.16860   0.18480   0.37196   0.37225
     Eigenvalues ---    0.37230   0.37230   0.37230   0.37752   0.54536
     Eigenvalues ---    0.63724
 RFO step:  Lambda=-4.69684634D-02 EMin= 2.48555809D-03
 Quartic linear search produced a step of -0.26288.
 Iteration  1 RMS(Cart)=  0.07862784 RMS(Int)=  0.03754911
 Iteration  2 RMS(Cart)=  0.03864895 RMS(Int)=  0.00285855
 Iteration  3 RMS(Cart)=  0.00147375 RMS(Int)=  0.00239129
 Iteration  4 RMS(Cart)=  0.00000221 RMS(Int)=  0.00239128
 Iteration  5 RMS(Cart)=  0.00000001 RMS(Int)=  0.00239128
 Variable       Old X    -DE/DX   Delta X   Delta X   Delta X     New X
                                 (Linear)    (Quad)   (Total)
    R1        2.06120  -0.00101  -0.00565   0.00434  -0.00130   2.05990
    R2        2.07983  -0.00514  -0.00871   0.00140  -0.00731   2.07252
    R3        2.32266   0.17072   0.10969   0.20187   0.31155   2.63421
    R4        2.82620   0.01108  -0.04406   0.05171   0.00765   2.83385
    R5        2.08651  -0.00644  -0.00940   0.00048  -0.00892   2.07759
    R6        2.09009  -0.00533  -0.00946   0.00243  -0.00703   2.08306
    R7        2.08558  -0.00373  -0.00916   0.00411  -0.00504   2.08054
    R8        2.07311  -0.00165  -0.00836   0.00551  -0.00286   2.07025
    A1        2.00663  -0.00355  -0.01603   0.01258  -0.01104   1.99559
    A2        2.10900   0.00567  -0.04151   0.07385   0.02482   2.13382
    A3        2.13051   0.00133  -0.04073   0.06427   0.01601   2.14652
    A4        2.21426  -0.00163   0.08327  -0.08384  -0.00056   2.21370
    A5        2.04116   0.00603  -0.05310   0.06186   0.00876   2.04992
    A6        2.02769  -0.00441  -0.03015   0.02189  -0.00826   2.01943
    A7        1.99945  -0.00675  -0.01430  -0.00246  -0.01668   1.98277
    A8        1.94392  -0.00058  -0.00459   0.00424  -0.00033   1.94359
    A9        1.92239   0.00559   0.00479   0.01589   0.02069   1.94308
   A10        1.83634   0.00381   0.00985  -0.00337   0.00658   1.84292
   A11        1.87229   0.00009   0.00353  -0.00615  -0.00257   1.86972
   A12        1.88371  -0.00215   0.00162  -0.00995  -0.00838   1.87533
    D1        2.94115   0.00850  -0.14843   0.46902   0.32014  -3.02189
    D2       -0.21463   0.00819  -0.14478   0.46069   0.31555   0.10092
    D3        0.10318  -0.00470   0.01544  -0.13575  -0.11995  -0.01677
    D4       -3.05260  -0.00500   0.01909  -0.14407  -0.12454   3.10604
    D5        1.02360  -0.00010   0.00377  -0.00837  -0.00465   1.01895
    D6       -1.05785   0.00012   0.00403  -0.00538  -0.00132  -1.05917
    D7        3.13587  -0.00051   0.00186  -0.00614  -0.00436   3.13152
    D8       -2.10390   0.00013   0.00015  -0.00040  -0.00024  -2.10414
    D9        2.09783   0.00034   0.00041   0.00259   0.00309   2.10092
   D10        0.00837  -0.00028  -0.00177   0.00183   0.00005   0.00842
         Item               Value     Threshold  Converged?
 Maximum Force            0.170719     0.000450     NO 
 RMS     Force            0.031501     0.000300     NO 
 Maximum Displacement     0.273893     0.001800     NO 
 RMS     Displacement     0.113060     0.001200     NO 
 Predicted change in Energy=-3.780417D-02
 GradGradGradGradGradGradGradGradGradGradGradGradGradGradGradGradGradGrad

                          Input orientation:                          
 ---------------------------------------------------------------------
 Center     Atomic      Atomic             Coordinates (Angstroms)
 Number     Number       Type             X           Y           Z
 ---------------------------------------------------------------------
      1          6           0        0.190927    1.313711    0.126107
      2          1           0        0.134494    2.252493   -0.424996
      3          1           0        0.210108    1.430119    1.216473
      4          6           0        0.086941    0.074181   -0.503091
      5          6           0        0.006855   -1.267620    0.161721
      6          1           0       -0.846240   -1.367698    0.852583
      7          1           0        0.903656   -1.469015    0.767796
      8          1           0        0.041444    0.065596   -1.601529
      9          1           0       -0.078967   -2.073228   -0.575721
 ---------------------------------------------------------------------
                    Distance matrix (angstroms):
                    1          2          3          4          5
     1  C    0.000000
     2  H    1.090050   0.000000
     3  H    1.096730   1.837508   0.000000
     4  C    1.393965   2.180229   2.193317   0.000000
     5  C    2.588131   3.570955   2.903723   1.499607   0.000000
     6  H    2.965374   3.962301   3.012652   2.188081   1.102306
     7  H    2.943351   3.982961   3.014514   2.159545   1.100972
     8  H    2.136554   2.485036   3.135523   1.099413   2.210818
     9  H    3.469404   4.333606   3.945752   2.155033   1.095532
                    6          7          8          9
     6  H    0.000000
     7  H    1.754876   0.000000
     8  H    2.977413   2.951634   0.000000
     9  H    1.768201   1.770779   2.375153   0.000000
 Stoichiometry    C3H6
 Framework group  C1[X(C3H6)]
 Deg. of freedom    21
 Full point group                 C1      NOp   1
 Largest Abelian subgroup         C1      NOp   1
 Largest concise Abelian subgroup C1      NOp   1
                         Standard orientation:                         
 ---------------------------------------------------------------------
 Center     Atomic      Atomic             Coordinates (Angstroms)
 Number     Number       Type             X           Y           Z
 ---------------------------------------------------------------------
      1          6           0       -1.329889   -0.213119    0.014548
      2          1           0       -2.280372    0.311309   -0.084281
      3          1           0       -1.412516   -1.306513   -0.007364
      4          6           0       -0.106932    0.455823    0.008874
      5          6           0        1.257723   -0.165710   -0.006420
      6          1           0        1.432813   -0.824916   -0.872370
      7          1           0        1.421899   -0.794614    0.882211
      8          1           0       -0.130476    1.554930   -0.002053
      9          1           0        2.043246    0.597838   -0.018159
 ---------------------------------------------------------------------
 Rotational constants (GHZ):     46.5294480      8.7950117      7.7513031
 Standard basis: 6-31G(d) (6D, 7F)
 There are    57 symmetry adapted cartesian basis functions of A   symmetry.
 There are    57 symmetry adapted basis functions of A   symmetry.
    57 basis functions,   108 primitive gaussians,    57 cartesian basis functions
    12 alpha electrons       12 beta electrons
       nuclear repulsion energy        69.3797337006 Hartrees.
 NAtoms=    9 NActive=    9 NUniq=    9 SFac= 1.00D+00 NAtFMM=   60 NAOKFM=F Big=F
 Integral buffers will be    131072 words long.
 Raffenetti 2 integral format.
 Two-electron integral symmetry is turned on.
 One-electron integrals computed using PRISM.
 NBasis=    57 RedAO= T EigKep=  6.39D-03  NBF=    57
 NBsUse=    57 1.00D-06 EigRej= -1.00D+00 NBFU=    57
 Initial guess from the checkpoint file:  "C:\Work\Gau-16676.chk"
 B after Tr=     0.000000    0.000000    0.000000
         Rot=    0.999837    0.002024   -0.001662    0.017857 Ang=   2.07 deg.
 ExpMin= 1.61D-01 ExpMax= 3.05D+03 ExpMxC= 4.57D+02 IAcc=1 IRadAn=         1 AccDes= 0.00D+00
 Harris functional with IExCor=  402 and IRadAn=       1 diagonalized for initial guess.
 HarFok:  IExCor=  402 AccDes= 0.00D+00 IRadAn=         1 IDoV= 1 UseB2=F ITyADJ=14
 ICtDFT=  3500011 ScaDFX=  1.000000  1.000000  1.000000  1.000000
 FoFCou: FMM=F IPFlag=           0 FMFlag=      100000 FMFlg1=           0
         NFxFlg=           0 DoJE=T BraDBF=F KetDBF=T FulRan=T
         wScrn=  0.000000 ICntrl=     500 IOpCl=  0 I1Cent=   200000004 NGrid=           0
         NMat0=    1 NMatS0=      1 NMatT0=    0 NMatD0=    1 NMtDS0=    0 NMtDT0=    0
 Petite list used in FoFCou.
 Keep R1 ints in memory in canonical form, NReq=2273549.
 Requested convergence on RMS density matrix=1.00D-08 within 128 cycles.
 Requested convergence on MAX density matrix=1.00D-06.
 Requested convergence on             energy=1.00D-06.
 No special actions if energy rises.
 Integral accuracy reduced to 1.0D-05 until final iterations.
 Initial convergence to 1.0D-05 achieved.  Increase integral accuracy.
 SCF Done:  E(RB3LYP) =  -117.899426755     A.U. after   12 cycles
            NFock= 12  Conv=0.74D-08     -V/T= 2.0121
 Calling FoFJK, ICntrl=      2127 FMM=F ISym2X=0 I1Cent= 0 IOpClX= 0 NMat=1 NMatS=1 NMatT=0.
 ***** Axes restored to original set *****
 -------------------------------------------------------------------
 Center     Atomic                   Forces (Hartrees/Bohr)
 Number     Number              X              Y              Z
 -------------------------------------------------------------------
      1        6          -0.010866974   -0.047140511   -0.018498503
      2        1           0.004221689   -0.004428107   -0.002708823
      3        1           0.001089046   -0.004774915   -0.005026159
      4        6           0.001322427    0.056498866    0.015840958
      5        6           0.003598592   -0.005658466    0.008362578
      6        1           0.000918820    0.003098594   -0.003223615
      7        1          -0.000801871   -0.000461059   -0.001694825
      8        1           0.000041241    0.002121982    0.006431243
      9        1           0.000477030    0.000743616    0.000517147
 -------------------------------------------------------------------
 Cartesian Forces:  Max     0.056498866 RMS     0.015405285

 GradGradGradGradGradGradGradGradGradGradGradGradGradGradGradGradGradGrad
 Berny optimization.
 Using GEDIIS/GDIIS optimizer.
 FormGI is forming the generalized inverse of G from B-inverse, IUseBI=4.
 Internal  Forces:  Max     0.062355659 RMS     0.011763493
 Search for a local minimum.
 Step number   4 out of a maximum of   40
 All quantities printed in internal units (Hartrees-Bohrs-Radians)
 Mixed Optimization -- RFO/linear search
 Update second derivatives using D2CorX and points    3    4
 DE= -1.33D-02 DEPred=-3.78D-02 R= 3.52D-01
 Trust test= 3.52D-01 RLast= 5.76D-01 DXMaxT set to 8.49D-01
 ITU=  0  1  1  0
 Use linear search instead of GDIIS.
     Eigenvalues ---    0.00250   0.00434   0.01885   0.03015   0.08265
     Eigenvalues ---    0.08453   0.14900   0.15964   0.16000   0.16008
     Eigenvalues ---    0.16029   0.16853   0.18453   0.37182   0.37199
     Eigenvalues ---    0.37229   0.37230   0.37230   0.37716   0.63194
     Eigenvalues ---    0.68124
 RFO step:  Lambda=-1.03467336D-02 EMin= 2.49720011D-03
 Quartic linear search produced a step of -0.36488.
 Iteration  1 RMS(Cart)=  0.06354600 RMS(Int)=  0.11711740
 Iteration  2 RMS(Cart)=  0.05002450 RMS(Int)=  0.06817527
 Iteration  3 RMS(Cart)=  0.04869080 RMS(Int)=  0.02960790
 Iteration  4 RMS(Cart)=  0.01437997 RMS(Int)=  0.02612384
 Iteration  5 RMS(Cart)=  0.00073077 RMS(Int)=  0.02611365
 Iteration  6 RMS(Cart)=  0.00006863 RMS(Int)=  0.02611358
 Iteration  7 RMS(Cart)=  0.00000629 RMS(Int)=  0.02611358
 Iteration  8 RMS(Cart)=  0.00000058 RMS(Int)=  0.02611358
 Variable       Old X    -DE/DX   Delta X   Delta X   Delta X     New X
                                 (Linear)    (Quad)   (Total)
    R1        2.05990  -0.00266   0.00048  -0.00350  -0.00302   2.05687
    R2        2.07252  -0.00548   0.00267  -0.01240  -0.00974   2.06278
    R3        2.63421  -0.06236  -0.11368   0.07723  -0.03645   2.59776
    R4        2.83385   0.00357  -0.00279   0.03185   0.02905   2.86290
    R5        2.07759  -0.00644   0.00325  -0.01550  -0.01224   2.06535
    R6        2.08306  -0.00301   0.00257  -0.00800  -0.00543   2.07762
    R7        2.08054  -0.00150   0.00184  -0.00336  -0.00152   2.07902
    R8        2.07025  -0.00093   0.00104   0.00009   0.00113   2.07139
    A1        1.99559   0.00580   0.00403   0.02320  -0.06163   1.93396
    A2        2.13382  -0.00258  -0.00906   0.03114  -0.05070   2.08312
    A3        2.14652  -0.00276  -0.00584   0.01857  -0.05999   2.08653
    A4        2.21370  -0.00492   0.00020  -0.06048  -0.06032   2.15338
    A5        2.04992   0.00032  -0.00320   0.04226   0.03902   2.08894
    A6        2.01943   0.00461   0.00301   0.01847   0.02144   2.04087
    A7        1.98277  -0.00482   0.00609  -0.02956  -0.02348   1.95929
    A8        1.94359   0.00148   0.00012   0.00800   0.00815   1.95174
    A9        1.94308   0.00034  -0.00755   0.01130   0.00371   1.94679
   A10        1.84292   0.00223  -0.00240   0.01501   0.01267   1.85559
   A11        1.86972   0.00165   0.00094   0.00302   0.00388   1.87360
   A12        1.87533  -0.00061   0.00306  -0.00699  -0.00394   1.87139
    D1       -3.02189  -0.00414  -0.11681  -0.54486  -0.63951   2.62178
    D2        0.10092  -0.00329  -0.11514  -0.52765  -0.62051  -0.51959
    D3       -0.01677   0.00058   0.04377   0.13980   0.16129   0.14452
    D4        3.10604   0.00143   0.04544   0.15700   0.18028  -2.99686
    D5        1.01895   0.00098   0.00170   0.01272   0.01432   1.03328
    D6       -1.05917   0.00036   0.00048   0.00801   0.00848  -1.05069
    D7        3.13152  -0.00008   0.00159   0.00383   0.00541   3.13692
    D8       -2.10414   0.00018   0.00009  -0.00446  -0.00438  -2.10853
    D9        2.10092  -0.00044  -0.00113  -0.00918  -0.01023   2.09069
   D10        0.00842  -0.00089  -0.00002  -0.01335  -0.01330  -0.00488
         Item               Value     Threshold  Converged?
 Maximum Force            0.062356     0.000450     NO 
 RMS     Force            0.011763     0.000300     NO 
 Maximum Displacement     0.564617     0.001800     NO 
 RMS     Displacement     0.154619     0.001200     NO 
 Predicted change in Energy=-1.138604D-03
 GradGradGradGradGradGradGradGradGradGradGradGradGradGradGradGradGradGrad

                          Input orientation:                          
 ---------------------------------------------------------------------
 Center     Atomic      Atomic             Coordinates (Angstroms)
 Number     Number       Type             X           Y           Z
 ---------------------------------------------------------------------
      1          6           0       -0.010291    1.306300    0.114771
      2          1           0        0.433277    2.174516   -0.369143
      3          1           0        0.164184    1.331457    1.192020
      4          6           0       -0.018221    0.099081   -0.542722
      5          6           0        0.023701   -1.237804    0.168720
      6          1           0       -0.825084   -1.371335    0.854636
      7          1           0        0.933412   -1.348911    0.777368
      8          1           0       -0.056210    0.077723   -1.634788
      9          1           0        0.004450   -2.072486   -0.541520
 ---------------------------------------------------------------------
                    Distance matrix (angstroms):
                    1          2          3          4          5
     1  C    0.000000
     2  H    1.088451   0.000000
     3  H    1.091577   1.794544   0.000000
     4  C    1.374677   2.131059   2.135733   0.000000
     5  C    2.544903   3.478647   2.769113   1.514982   0.000000
     6  H    2.894999   3.956535   2.897856   2.183062   1.099430
     7  H    2.894781   3.738872   2.819224   2.178285   1.100169
     8  H    2.138333   2.497599   3.100205   1.092936   2.233750
     9  H    3.441966   4.272076   3.823285   2.171686   1.096132
                    6          7          8          9
     6  H    0.000000
     7  H    1.760335   0.000000
     8  H    2.981304   2.972059   0.000000
     9  H    1.768895   1.768048   2.412947   0.000000
 Stoichiometry    C3H6
 Framework group  C1[X(C3H6)]
 Deg. of freedom    21
 Full point group                 C1      NOp   1
 Largest Abelian subgroup         C1      NOp   1
 Largest concise Abelian subgroup C1      NOp   1
                         Standard orientation:                         
 ---------------------------------------------------------------------
 Center     Atomic      Atomic             Coordinates (Angstroms)
 Number     Number       Type             X           Y           Z
 ---------------------------------------------------------------------
      1          6           0       -1.305223   -0.220546   -0.077075
      2          1           0       -2.203315    0.205207    0.366647
      3          1           0       -1.288387   -1.304993    0.046347
      4          6           0       -0.127314    0.486180   -0.024102
      5          6           0        1.237402   -0.170277    0.018137
      6          1           0        1.419653   -0.808874   -0.858062
      7          1           0        1.353363   -0.816390    0.901009
      8          1           0       -0.151727    1.578760   -0.010632
      9          1           0        2.041222    0.574147    0.052923
 ---------------------------------------------------------------------
 Rotational constants (GHZ):     44.0957649      9.1187334      7.9776096
 Standard basis: 6-31G(d) (6D, 7F)
 There are    57 symmetry adapted cartesian basis functions of A   symmetry.
 There are    57 symmetry adapted basis functions of A   symmetry.
    57 basis functions,   108 primitive gaussians,    57 cartesian basis functions
    12 alpha electrons       12 beta electrons
       nuclear repulsion energy        69.8111580559 Hartrees.
 NAtoms=    9 NActive=    9 NUniq=    9 SFac= 1.00D+00 NAtFMM=   60 NAOKFM=F Big=F
 Integral buffers will be    131072 words long.
 Raffenetti 2 integral format.
 Two-electron integral symmetry is turned on.
 One-electron integrals computed using PRISM.
 NBasis=    57 RedAO= T EigKep=  6.10D-03  NBF=    57
 NBsUse=    57 1.00D-06 EigRej= -1.00D+00 NBFU=    57
 Initial guess from the checkpoint file:  "C:\Work\Gau-16676.chk"
 B after Tr=     0.000000    0.000000    0.000000
         Rot=    0.999976   -0.005334    0.001117   -0.004232 Ang=  -0.79 deg.
 ExpMin= 1.61D-01 ExpMax= 3.05D+03 ExpMxC= 4.57D+02 IAcc=1 IRadAn=         1 AccDes= 0.00D+00
 Harris functional with IExCor=  402 and IRadAn=       1 diagonalized for initial guess.
 HarFok:  IExCor=  402 AccDes= 0.00D+00 IRadAn=         1 IDoV= 1 UseB2=F ITyADJ=14
 ICtDFT=  3500011 ScaDFX=  1.000000  1.000000  1.000000  1.000000
 FoFCou: FMM=F IPFlag=           0 FMFlag=      100000 FMFlg1=           0
         NFxFlg=           0 DoJE=T BraDBF=F KetDBF=T FulRan=T
         wScrn=  0.000000 ICntrl=     500 IOpCl=  0 I1Cent=   200000004 NGrid=           0
         NMat0=    1 NMatS0=      1 NMatT0=    0 NMatD0=    1 NMtDS0=    0 NMtDT0=    0
 Petite list used in FoFCou.
 Keep R1 ints in memory in canonical form, NReq=2273549.
 Requested convergence on RMS density matrix=1.00D-08 within 128 cycles.
 Requested convergence on MAX density matrix=1.00D-06.
 Requested convergence on             energy=1.00D-06.
 No special actions if energy rises.
 Integral accuracy reduced to 1.0D-05 until final iterations.
 Initial convergence to 1.0D-05 achieved.  Increase integral accuracy.
 SCF Done:  E(RB3LYP) =  -117.891763019     A.U. after   13 cycles
            NFock= 13  Conv=0.39D-08     -V/T= 2.0114
 Calling FoFJK, ICntrl=      2127 FMM=F ISym2X=0 I1Cent= 0 IOpClX= 0 NMat=1 NMatS=1 NMatT=0.
 ***** Axes restored to original set *****
 -------------------------------------------------------------------
 Center     Atomic                   Forces (Hartrees/Bohr)
 Number     Number              X              Y              Z
 -------------------------------------------------------------------
      1        6           0.035441923   -0.035060461   -0.013974310
      2        1          -0.018961096    0.006251937   -0.007706979
      3        1          -0.008776355   -0.002903693    0.001353611
      4        6          -0.003447242    0.028703790    0.021519066
      5        6          -0.006669660   -0.002048204   -0.000797851
      6        1           0.000316194    0.000482286   -0.001086493
      7        1          -0.000973419    0.002291271   -0.002334875
      8        1           0.003660893    0.001621807    0.002433251
      9        1          -0.000591238    0.000661266    0.000594580
 -------------------------------------------------------------------
 Cartesian Forces:  Max     0.035441923 RMS     0.013067312

 GradGradGradGradGradGradGradGradGradGradGradGradGradGradGradGradGradGrad
 Berny optimization.
 Using GEDIIS/GDIIS optimizer.
 FormGI is forming the generalized inverse of G from B-inverse, IUseBI=4.
 Internal  Forces:  Max     0.037529600 RMS     0.008771876
 Search for a local minimum.
 Step number   5 out of a maximum of   40
 All quantities printed in internal units (Hartrees-Bohrs-Radians)
 Mixed Optimization -- RFO/linear search
 Update second derivatives using D2CorX and points    3    5    4
 DE=  7.66D-03 DEPred=-1.14D-03 R=-6.73D+00
 Trust test=-6.73D+00 RLast= 9.34D-01 DXMaxT set to 4.24D-01
 ITU= -1  0  1  1  0
 Use linear search instead of GDIIS.
 Energy rises -- skip Quadratic/GDIIS search.
 Quartic linear search produced a step of -0.73133.
 Iteration  1 RMS(Cart)=  0.06622487 RMS(Int)=  0.06879198
 Iteration  2 RMS(Cart)=  0.04929012 RMS(Int)=  0.01860429
 Iteration  3 RMS(Cart)=  0.01682544 RMS(Int)=  0.00541281
 Iteration  4 RMS(Cart)=  0.00049136 RMS(Int)=  0.00538784
 Iteration  5 RMS(Cart)=  0.00000101 RMS(Int)=  0.00538784
 Iteration  6 RMS(Cart)=  0.00000001 RMS(Int)=  0.00538784
 Variable       Old X    -DE/DX   Delta X   Delta X   Delta X     New X
                                 (Linear)    (Quad)   (Total)
    R1        2.05687   0.00069   0.00221   0.00000   0.00221   2.05908
    R2        2.06278  -0.00014   0.00712   0.00000   0.00712   2.06990
    R3        2.59776  -0.03753   0.02666   0.00000   0.02666   2.62442
    R4        2.86290  -0.00314  -0.02125   0.00000  -0.02125   2.84165
    R5        2.06535  -0.00259   0.00895   0.00000   0.00895   2.07430
    R6        2.07762  -0.00098   0.00397   0.00000   0.00397   2.08160
    R7        2.07902  -0.00233   0.00111   0.00000   0.00111   2.08013
    R8        2.07139  -0.00088  -0.00083   0.00000  -0.00083   2.07056
    A1        1.93396   0.00567   0.04508   0.00000   0.06213   1.99609
    A2        2.08312   0.00784   0.03708   0.00000   0.05409   2.13721
    A3        2.08653   0.00017   0.04387   0.00000   0.06088   2.14741
    A4        2.15338   0.00454   0.04411   0.00000   0.04412   2.19750
    A5        2.08894  -0.00384  -0.02854   0.00000  -0.02853   2.06041
    A6        2.04087  -0.00070  -0.01568   0.00000  -0.01567   2.02520
    A7        1.95929  -0.00026   0.01717   0.00000   0.01717   1.97646
    A8        1.95174  -0.00338  -0.00596   0.00000  -0.00596   1.94578
    A9        1.94679   0.00070  -0.00271   0.00000  -0.00271   1.94408
   A10        1.85559   0.00188  -0.00926   0.00000  -0.00928   1.84631
   A11        1.87360  -0.00004  -0.00284   0.00000  -0.00283   1.87077
   A12        1.87139   0.00132   0.00288   0.00000   0.00289   1.87428
    D1        2.62178   0.01876   0.46769   0.00000   0.46718   3.08896
    D2       -0.51959   0.01666   0.45380   0.00000   0.45326  -0.06633
    D3        0.14452  -0.00568  -0.11795   0.00000  -0.11741   0.02710
    D4       -2.99686  -0.00779  -0.13185   0.00000  -0.13133  -3.12819
    D5        1.03328  -0.00135  -0.01048   0.00000  -0.01046   1.02282
    D6       -1.05069  -0.00124  -0.00620   0.00000  -0.00620  -1.05689
    D7        3.13692  -0.00108  -0.00395   0.00000  -0.00395   3.13298
    D8       -2.10853   0.00070   0.00321   0.00000   0.00321  -2.10532
    D9        2.09069   0.00081   0.00748   0.00000   0.00747   2.09816
   D10       -0.00488   0.00097   0.00973   0.00000   0.00972   0.00484
         Item               Value     Threshold  Converged?
 Maximum Force            0.037530     0.000450     NO 
 RMS     Force            0.008772     0.000300     NO 
 Maximum Displacement     0.410180     0.001800     NO 
 RMS     Displacement     0.116202     0.001200     NO 
 Predicted change in Energy=-1.587234D-03
 GradGradGradGradGradGradGradGradGradGradGradGradGradGradGradGradGradGrad

                          Input orientation:                          
 ---------------------------------------------------------------------
 Center     Atomic      Atomic             Coordinates (Angstroms)
 Number     Number       Type             X           Y           Z
 ---------------------------------------------------------------------
      1          6           0        0.135790    1.309033    0.127324
      2          1           0        0.216219    2.248042   -0.419544
      3          1           0        0.193104    1.413821    1.216138
      4          6           0        0.059882    0.078466   -0.511942
      5          6           0        0.011450   -1.264442    0.162950
      6          1           0       -0.841909   -1.374794    0.850682
      7          1           0        0.911334   -1.442584    0.771342
      8          1           0        0.018597    0.068218   -1.608791
      9          1           0       -0.055250   -2.077221   -0.568817
 ---------------------------------------------------------------------
                    Distance matrix (angstroms):
                    1          2          3          4          5
     1  C    0.000000
     2  H    1.089620   0.000000
     3  H    1.095346   1.836278   0.000000
     4  C    1.388783   2.177164   2.187963   0.000000
     5  C    2.576723   3.566339   2.883625   1.503737   0.000000
     6  H    2.946535   3.982217   2.996862   2.186764   1.101533
     7  H    2.930464   3.939811   2.978715   2.164574   1.100756
     8  H    2.137159   2.490983   3.133899   1.097673   2.217003
     9  H    3.462344   4.336344   3.928755   2.159508   1.095693
                    6          7          8          9
     6  H    0.000000
     7  H    1.756346   0.000000
     8  H    2.978550   2.957115   0.000000
     9  H    1.768393   1.770049   2.385353   0.000000
 Stoichiometry    C3H6
 Framework group  C1[X(C3H6)]
 Deg. of freedom    21
 Full point group                 C1      NOp   1
 Largest Abelian subgroup         C1      NOp   1
 Largest concise Abelian subgroup C1      NOp   1
                         Standard orientation:                         
 ---------------------------------------------------------------------
 Center     Atomic      Atomic             Coordinates (Angstroms)
 Number     Number       Type             X           Y           Z
 ---------------------------------------------------------------------
      1          6           0       -1.321925   -0.216596   -0.009976
      2          1           0       -2.281515    0.297408    0.037543
      3          1           0       -1.393257   -1.309467    0.008116
      4          6           0       -0.111029    0.463381   -0.000997
      5          6           0        1.254294   -0.166790    0.000818
      6          1           0        1.431538   -0.822559   -0.866319
      7          1           0        1.405710   -0.798204    0.889668
      8          1           0       -0.135155    1.560768   -0.007838
      9          1           0        2.044640    0.592087   -0.000238
 ---------------------------------------------------------------------
 Rotational constants (GHZ):     46.0534452      8.8634798      7.7896054
 Standard basis: 6-31G(d) (6D, 7F)
 There are    57 symmetry adapted cartesian basis functions of A   symmetry.
 There are    57 symmetry adapted basis functions of A   symmetry.
    57 basis functions,   108 primitive gaussians,    57 cartesian basis functions
    12 alpha electrons       12 beta electrons
       nuclear repulsion energy        69.4603459450 Hartrees.
 NAtoms=    9 NActive=    9 NUniq=    9 SFac= 1.00D+00 NAtFMM=   60 NAOKFM=F Big=F
 Integral buffers will be    131072 words long.
 Raffenetti 2 integral format.
 Two-electron integral symmetry is turned on.
 One-electron integrals computed using PRISM.
 NBasis=    57 RedAO= T EigKep=  6.35D-03  NBF=    57
 NBsUse=    57 1.00D-06 EigRej= -1.00D+00 NBFU=    57
 Lowest energy guess from the checkpoint file:  "C:\Work\Gau-16676.chk"
 B after Tr=     0.000000    0.000000    0.000000
         Rot=    0.999999   -0.000518    0.000354   -0.000840 Ang=  -0.12 deg.
 B after Tr=     0.000000    0.000000    0.000000
         Rot=    0.999981    0.005189   -0.000604    0.003411 Ang=   0.71 deg.
 Keep R1 ints in memory in canonical form, NReq=2273549.
 Requested convergence on RMS density matrix=1.00D-08 within 128 cycles.
 Requested convergence on MAX density matrix=1.00D-06.
 Requested convergence on             energy=1.00D-06.
 No special actions if energy rises.
 Integral accuracy reduced to 1.0D-05 until final iterations.
 Initial convergence to 1.0D-05 achieved.  Increase integral accuracy.
 SCF Done:  E(RB3LYP) =  -117.900539212     A.U. after   10 cycles
            NFock= 10  Conv=0.40D-08     -V/T= 2.0120
 Calling FoFJK, ICntrl=      2127 FMM=F ISym2X=0 I1Cent= 0 IOpClX= 0 NMat=1 NMatS=1 NMatT=0.
 ***** Axes restored to original set *****
 -------------------------------------------------------------------
 Center     Atomic                   Forces (Hartrees/Bohr)
 Number     Number              X              Y              Z
 -------------------------------------------------------------------
      1        6           0.001884132   -0.043444811   -0.019556245
      2        1          -0.002481607   -0.003848125   -0.002482113
      3        1          -0.001458390   -0.004564792   -0.004151801
      4        6           0.000096271    0.050734260    0.018451190
      5        6           0.000842154   -0.004242258    0.006283568
      6        1           0.000721440    0.002277237   -0.002694995
      7        1          -0.000824340    0.000217389   -0.001889946
      8        1           0.001035113    0.002069118    0.005517170
      9        1           0.000185226    0.000801982    0.000523173
 -------------------------------------------------------------------
 Cartesian Forces:  Max     0.050734260 RMS     0.014099381

 GradGradGradGradGradGradGradGradGradGradGradGradGradGradGradGradGradGrad
 Berny optimization.
 Using GEDIIS/GDIIS optimizer.
 FormGI is forming the generalized inverse of G from B-inverse, IUseBI=4.
 Internal  Forces:  Max     0.058116896 RMS     0.010867631
 Search for a local minimum.
 Step number   6 out of a maximum of   40
 All quantities printed in internal units (Hartrees-Bohrs-Radians)
 Mixed Optimization -- RFO/linear search
 Update second derivatives using D2CorX and points    3    4    6
 ITU=  0 -1  0  1  1  0
 Use linear search instead of GDIIS.
     Eigenvalues ---    0.00242   0.01824   0.03009   0.03400   0.08276
     Eigenvalues ---    0.08446   0.14816   0.15322   0.15998   0.16013
     Eigenvalues ---    0.16103   0.16548   0.18370   0.36014   0.37197
     Eigenvalues ---    0.37230   0.37230   0.37239   0.37372   0.62036
     Eigenvalues ---    0.70797
 RFO step:  Lambda=-5.69229749D-03 EMin= 2.41577213D-03
 Quartic linear search produced a step of  0.01155.
 Iteration  1 RMS(Cart)=  0.03773619 RMS(Int)=  0.00073449
 Iteration  2 RMS(Cart)=  0.00070760 RMS(Int)=  0.00034431
 Iteration  3 RMS(Cart)=  0.00000035 RMS(Int)=  0.00034431
 Variable       Old X    -DE/DX   Delta X   Delta X   Delta X     New X
                                 (Linear)    (Quad)   (Total)
    R1        2.05908  -0.00225  -0.00001  -0.00657  -0.00658   2.05251
    R2        2.06990  -0.00464  -0.00003  -0.01433  -0.01436   2.05555
    R3        2.62442  -0.05812  -0.00011  -0.08256  -0.08267   2.54174
    R4        2.84165   0.00181   0.00009   0.00916   0.00925   2.85091
    R5        2.07430  -0.00557  -0.00004  -0.01647  -0.01651   2.05779
    R6        2.08160  -0.00247  -0.00002  -0.00848  -0.00850   2.07310
    R7        2.08013  -0.00175   0.00000  -0.00509  -0.00510   2.07503
    R8        2.07056  -0.00096   0.00000  -0.00258  -0.00257   2.06799
    A1        1.99609   0.00577   0.00001   0.03082   0.02974   2.02583
    A2        2.13721  -0.00273   0.00004  -0.01241  -0.01345   2.12376
    A3        2.14741  -0.00290   0.00001  -0.01278  -0.01386   2.13356
    A4        2.19750  -0.00265  -0.00019  -0.01799  -0.01821   2.17929
    A5        2.06041  -0.00080   0.00012   0.00506   0.00515   2.06556
    A6        2.02520   0.00345   0.00007   0.01311   0.01314   2.03833
    A7        1.97646  -0.00344  -0.00007  -0.02994  -0.03002   1.94644
    A8        1.94578   0.00027   0.00003   0.00601   0.00605   1.95182
    A9        1.94408   0.00028   0.00001   0.00512   0.00509   1.94917
   A10        1.84631   0.00211   0.00004   0.01776   0.01784   1.86415
   A11        1.87077   0.00115   0.00001   0.00513   0.00509   1.87586
   A12        1.87428  -0.00011  -0.00001  -0.00247  -0.00251   1.87177
    D1        3.08896   0.00172  -0.00199   0.00802   0.00604   3.09500
    D2       -0.06633   0.00182  -0.00193   0.02495   0.02300  -0.04333
    D3        0.02710  -0.00081   0.00051  -0.08413  -0.08360  -0.05650
    D4       -3.12819  -0.00071   0.00057  -0.06719  -0.06664   3.08836
    D5        1.02282   0.00043   0.00004   0.01415   0.01417   1.03699
    D6       -1.05689  -0.00010   0.00003   0.00766   0.00773  -1.04916
    D7        3.13298  -0.00033   0.00002   0.00324   0.00328   3.13626
    D8       -2.10532   0.00036  -0.00001  -0.00243  -0.00250  -2.10782
    D9        2.09816  -0.00017  -0.00003  -0.00893  -0.00894   2.08922
   D10        0.00484  -0.00040  -0.00004  -0.01335  -0.01339  -0.00855
         Item               Value     Threshold  Converged?
 Maximum Force            0.058117     0.000450     NO 
 RMS     Force            0.010868     0.000300     NO 
 Maximum Displacement     0.111835     0.001800     NO 
 RMS     Displacement     0.037748     0.001200     NO 
 Predicted change in Energy=-2.919272D-03
 GradGradGradGradGradGradGradGradGradGradGradGradGradGradGradGradGradGrad

                          Input orientation:                          
 ---------------------------------------------------------------------
 Center     Atomic      Atomic             Coordinates (Angstroms)
 Number     Number       Type             X           Y           Z
 ---------------------------------------------------------------------
      1          6           0        0.152404    1.277226    0.120799
      2          1           0        0.220037    2.213973   -0.424756
      3          1           0        0.154848    1.354640    1.205787
      4          6           0        0.060034    0.095061   -0.514077
      5          6           0        0.020228   -1.249669    0.168637
      6          1           0       -0.832852   -1.328031    0.853912
      7          1           0        0.924182   -1.431872    0.764794
      8          1           0        0.012607    0.094732   -1.601982
      9          1           0       -0.062270   -2.067520   -0.553772
 ---------------------------------------------------------------------
                    Distance matrix (angstroms):
                    1          2          3          4          5
     1  C    0.000000
     2  H    1.086140   0.000000
     3  H    1.087749   1.844282   0.000000
     4  C    1.345033   2.126822   2.133884   0.000000
     5  C    2.530801   3.519780   2.806461   1.508635   0.000000
     6  H    2.880199   3.910161   2.880294   2.166524   1.097035
     7  H    2.889565   3.899107   2.924209   2.171126   1.098060
     8  H    2.094232   2.433120   3.080774   1.088938   2.223187
     9  H    3.418838   4.292730   3.854137   2.166400   1.094332
                    6          7          8          9
     6  H    0.000000
     7  H    1.762355   0.000000
     8  H    2.961498   2.960256   0.000000
     9  H    1.766979   1.765150   2.404098   0.000000
 Stoichiometry    C3H6
 Framework group  C1[X(C3H6)]
 Deg. of freedom    21
 Full point group                 C1      NOp   1
 Largest Abelian subgroup         C1      NOp   1
 Largest concise Abelian subgroup C1      NOp   1
                         Standard orientation:                         
 ---------------------------------------------------------------------
 Center     Atomic      Atomic             Coordinates (Angstroms)
 Number     Number       Type             X           Y           Z
 ---------------------------------------------------------------------
      1          6           0       -1.288587   -0.224690    0.002463
      2          1           0       -2.250980    0.277561    0.037752
      3          1           0       -1.317552   -1.311434   -0.034240
      4          6           0       -0.132723    0.463070   -0.006354
      5          6           0        1.241377   -0.159613    0.003404
      6          1           0        1.394249   -0.810992   -0.865977
      7          1           0        1.402988   -0.778317    0.896053
      8          1           0       -0.178467    1.550979   -0.018552
      9          1           0        2.029363    0.599596   -0.012112
 ---------------------------------------------------------------------
 Rotational constants (GHZ):     46.2864671      9.1632266      8.0302969
 Standard basis: 6-31G(d) (6D, 7F)
 There are    57 symmetry adapted cartesian basis functions of A   symmetry.
 There are    57 symmetry adapted basis functions of A   symmetry.
    57 basis functions,   108 primitive gaussians,    57 cartesian basis functions
    12 alpha electrons       12 beta electrons
       nuclear repulsion energy        70.2949535391 Hartrees.
 NAtoms=    9 NActive=    9 NUniq=    9 SFac= 1.00D+00 NAtFMM=   60 NAOKFM=F Big=F
 Integral buffers will be    131072 words long.
 Raffenetti 2 integral format.
 Two-electron integral symmetry is turned on.
 One-electron integrals computed using PRISM.
 NBasis=    57 RedAO= T EigKep=  5.79D-03  NBF=    57
 NBsUse=    57 1.00D-06 EigRej= -1.00D+00 NBFU=    57
 Initial guess from the checkpoint file:  "C:\Work\Gau-16676.chk"
 B after Tr=     0.000000    0.000000    0.000000
         Rot=    0.999985    0.000806   -0.000833   -0.005336 Ang=   0.63 deg.
 ExpMin= 1.61D-01 ExpMax= 3.05D+03 ExpMxC= 4.57D+02 IAcc=1 IRadAn=         1 AccDes= 0.00D+00
 Harris functional with IExCor=  402 and IRadAn=       1 diagonalized for initial guess.
 HarFok:  IExCor=  402 AccDes= 0.00D+00 IRadAn=         1 IDoV= 1 UseB2=F ITyADJ=14
 ICtDFT=  3500011 ScaDFX=  1.000000  1.000000  1.000000  1.000000
 FoFCou: FMM=F IPFlag=           0 FMFlag=      100000 FMFlg1=           0
         NFxFlg=           0 DoJE=T BraDBF=F KetDBF=T FulRan=T
         wScrn=  0.000000 ICntrl=     500 IOpCl=  0 I1Cent=   200000004 NGrid=           0
         NMat0=    1 NMatS0=      1 NMatT0=    0 NMatD0=    1 NMtDS0=    0 NMtDT0=    0
[...]
     2   1     0.00   0.02   0.00    -0.11  -0.19   0.00     0.33   0.61   0.00
     3   1     0.41   0.11   0.00    -0.23  -0.01   0.00     0.58  -0.03   0.00
     4   6     0.01  -0.09   0.00     0.03   0.02   0.00    -0.12  -0.02   0.00
     5   6     0.01  -0.02   0.00     0.10  -0.07   0.00     0.06  -0.01   0.00
     6   1    -0.05   0.00  -0.03    -0.46   0.20  -0.26    -0.17   0.02  -0.06
     7   1    -0.05   0.00   0.03    -0.45   0.20   0.26    -0.17   0.02   0.06
     8   1    -0.87  -0.13   0.00     0.00   0.02   0.00     0.29   0.00   0.00
     9   1    -0.06   0.04   0.00    -0.34   0.37   0.00    -0.05   0.11  -0.01
                     13                     14                     15
                      A                      A                      A
 Frequencies --   1521.7671              1523.7063              1730.8302
 Red. masses --      1.0510                 1.0442                 4.3466
 Frc consts  --      1.4340                 1.4284                 7.6719
 IR Inten    --      4.6342                 5.1699                 8.0038
  Atom  AN      X      Y      Z        X      Y      Z        X      Y      Z
     1   6     0.02   0.00   0.00     0.00   0.00   0.00     0.32   0.18   0.00
     2   1     0.00  -0.04   0.00     0.00   0.00  -0.01     0.03  -0.46   0.00
     3   1    -0.07   0.01   0.00     0.00   0.00   0.00    -0.46   0.24   0.00
     4   6    -0.01   0.02   0.00     0.00   0.00   0.02    -0.38  -0.15   0.00
     5   6     0.04   0.04   0.00     0.00   0.00   0.06     0.05   0.01   0.00
     6   1    -0.10  -0.50   0.35     0.44   0.22  -0.05    -0.02   0.05  -0.04
     7   1    -0.11  -0.50  -0.34    -0.43  -0.22  -0.04    -0.02   0.05   0.04
     8   1    -0.02   0.02   0.00     0.00   0.00   0.00     0.35  -0.17   0.00
     9   1    -0.31   0.36   0.00     0.00  -0.01  -0.72     0.19  -0.12   0.00
                     16                     17                     18
                      A                      A                      A
 Frequencies --   3046.2627              3098.1577              3123.8896
 Red. masses --      1.0376                 1.1010                 1.0988
 Frc consts  --      5.6733                 6.2268                 6.3175
 IR Inten    --     22.1777                22.0713                14.4173
  Atom  AN      X      Y      Z        X      Y      Z        X      Y      Z
     1   6     0.00   0.00   0.00     0.00   0.00   0.00     0.00   0.00   0.00
     2   1    -0.01   0.01   0.00     0.00   0.00   0.00     0.06  -0.03   0.00
     3   1     0.00  -0.02   0.00     0.00   0.00   0.00     0.00   0.04   0.00
     4   6     0.00   0.00   0.00     0.00   0.00   0.00     0.00  -0.02   0.00
     5   6     0.04  -0.03   0.00     0.00   0.00   0.09     0.04   0.08   0.00
     6   1    -0.07   0.36   0.51     0.09  -0.42  -0.56     0.05  -0.16  -0.24
     7   1    -0.08   0.36  -0.53    -0.09   0.41  -0.56     0.05  -0.14   0.23
     8   1     0.00   0.01   0.00     0.00   0.00   0.00    -0.01   0.28   0.00
     9   1    -0.30  -0.31   0.01     0.01   0.01   0.02    -0.61  -0.61   0.01
                     19                     20                     21
                      A                      A                      A
 Frequencies --   3150.3989              3158.0715              3232.6807
 Red. masses --      1.0629                 1.0898                 1.1150
 Frc consts  --      6.2153                 6.4036                 6.8652
 IR Inten    --     26.5970                 9.8432                23.5703
  Atom  AN      X      Y      Z        X      Y      Z        X      Y      Z
     1   6    -0.05  -0.03   0.00    -0.02  -0.04   0.00    -0.06   0.08   0.00
     2   1     0.49  -0.27   0.00     0.18  -0.10   0.00     0.71  -0.37   0.00
     3   1     0.00   0.65   0.00     0.01   0.49   0.00    -0.02  -0.57   0.00
     4   6     0.01  -0.04   0.00     0.00   0.07   0.00     0.00   0.01   0.00
     5   6    -0.01  -0.02   0.00     0.01   0.01   0.00     0.00   0.00   0.00
     6   1    -0.01   0.04   0.06     0.01  -0.03  -0.04     0.00   0.00   0.00
     7   1    -0.01   0.03  -0.05     0.01  -0.02   0.04     0.00   0.00   0.00
     8   1    -0.02   0.47   0.00     0.03  -0.82   0.00     0.00  -0.14   0.00
     9   1     0.12   0.12   0.00    -0.14  -0.13   0.00    -0.01  -0.01   0.00

 -------------------
 - Thermochemistry -
 -------------------
 Temperature   298.150 Kelvin.  Pressure   1.00000 Atm.
 Atom     1 has atomic number  6 and mass  12.00000
 Atom     2 has atomic number  1 and mass   1.00783
 Atom     3 has atomic number  1 and mass   1.00783
 Atom     4 has atomic number  6 and mass  12.00000
 Atom     5 has atomic number  6 and mass  12.00000
 Atom     6 has atomic number  1 and mass   1.00783
 Atom     7 has atomic number  1 and mass   1.00783
 Atom     8 has atomic number  1 and mass   1.00783
 Atom     9 has atomic number  1 and mass   1.00783
 Molecular mass:    42.04695 amu.
 Principal axes and moments of inertia in atomic units:
                           1         2         3
     Eigenvalues --    38.81086 196.29464 223.89139
           X            0.99999  -0.00419  -0.00001
           Y            0.00419   0.99999   0.00011
           Z            0.00001  -0.00011   1.00000
 This molecule is an asymmetric top.
 Rotational symmetry number  1.
 Rotational temperatures (Kelvin)      2.23169     0.44124     0.38686
 Rotational constants (GHZ):          46.50093     9.19404     8.06079
    1 imaginary frequencies ignored.
 Zero-point vibrational energy     209090.0 (Joules/Mol)
                                   49.97371 (Kcal/Mol)
 Warning -- explicit consideration of   2 degrees of freedom as
           vibrations may cause significant error
 Vibrational temperatures:    597.03   849.68  1330.11  1341.40  1412.88
          (Kelvin)           1473.88  1535.41  1705.25  1934.80  2062.72
                             2117.68  2189.48  2192.27  2490.28  4382.89
                             4457.55  4494.57  4532.72  4543.75  4651.10
 
 Zero-point correction=                           0.079638 (Hartree/Particle)
 Thermal correction to Energy=                    0.083179
 Thermal correction to Enthalpy=                  0.084124
 Thermal correction to Gibbs Free Energy=         0.055046
 Sum of electronic and zero-point Energies=           -117.824605
 Sum of electronic and thermal Energies=              -117.821063
 Sum of electronic and thermal Enthalpies=            -117.820119
 Sum of electronic and thermal Free Energies=         -117.849197
 
                     E (Thermal)             CV                S
                      KCal/Mol        Cal/Mol-Kelvin    Cal/Mol-Kelvin
 Total                   52.196             11.125             61.199
 Electronic               0.000              0.000              0.000
 Translational            0.889              2.981             37.136
 Rotational               0.889              2.981             22.061
 Vibrational             50.418              5.163              2.003
 Vibration     1          0.778              1.438              0.909
 Vibration     2          0.948              1.052              0.466
                       Q            Log10(Q)             Ln(Q)
 Total Bot       0.479366D-25        -25.319333        -58.299919
 Total V=0       0.204932D+12         11.311610         26.045945
 Vib (Bot)       0.302562D-36        -36.519186        -84.088533
 Vib (Bot)    1  0.424777D+00         -0.371839         -0.856191
 Vib (Bot)    2  0.255299D+00         -0.592952         -1.365322
 Vib (V=0)       0.129347D+01          0.111757          0.257330
 Vib (V=0)    1  0.115608D+01          0.062986          0.145031
 Vib (V=0)    2  0.106141D+01          0.025882          0.059595
 Electronic      0.100000D+01          0.000000          0.000000
 Translational   0.107166D+08          7.030057         16.187304
 Rotational      0.147841D+05          4.169796          9.601310
 ***** Axes restored to original set *****
 -------------------------------------------------------------------
 Center     Atomic                   Forces (Hartrees/Bohr)
 Number     Number              X              Y              Z
 -------------------------------------------------------------------
      1        6          -0.000032547   -0.000029218    0.000037445
      2        1          -0.000013835    0.000004324    0.000001126
      3        1          -0.000002361   -0.000000892   -0.000015219
      4        6          -0.000009130   -0.000265137    0.000065456
      5        6          -0.000028492    0.000327458   -0.000142587
      6        1           0.000024332    0.000005088    0.000033704
      7        1           0.000024202   -0.000034587   -0.000017152
      8        1           0.000060005    0.000020524    0.000022218
      9        1          -0.000022175   -0.000027559    0.000015009
 -------------------------------------------------------------------
 Cartesian Forces:  Max     0.000327458 RMS     0.000089572
 FormGI is forming the generalized inverse of G from B-inverse, IUseBI=4.

 GradGradGradGradGradGradGradGradGradGradGradGradGradGradGradGradGradGrad
 Berny optimization.
 Internal  Forces:  Max     0.000289962 RMS     0.000058494
 Search for a local minimum.
 Step number   1 out of a maximum of    2
 All quantities printed in internal units (Hartrees-Bohrs-Radians)
 Second derivative matrix not updated -- analytic derivatives used.
 ITU=  0
     Eigenvalues ---   -0.00242   0.01951   0.03182   0.03898   0.05995
     Eigenvalues ---    0.06090   0.10829   0.11215   0.12326   0.12661
     Eigenvalues ---    0.14514   0.14781   0.17956   0.31873   0.33366
     Eigenvalues ---    0.33870   0.34782   0.35285   0.35759   0.36373
     Eigenvalues ---    0.64124
 Eigenvalue     1 is  -2.42D-03 should be greater than     0.000000 Eigenvector:
                          D9        D8        D6        D5        D10
   1                   -0.42090  -0.42085  -0.40508  -0.40502  -0.40499
                          D7        D3        D1        D4        D2
   1                   -0.38917  -0.02976  -0.02626  -0.01365  -0.01015
 Angle between quadratic step and forces=  73.12 degrees.
 Linear search not attempted -- first point.
 Iteration  1 RMS(Cart)=  0.00666263 RMS(Int)=  0.00002414
 Iteration  2 RMS(Cart)=  0.00002615 RMS(Int)=  0.00000006
 Iteration  3 RMS(Cart)=  0.00000000 RMS(Int)=  0.00000006
 Variable       Old X    -DE/DX   Delta X   Delta X   Delta X     New X
                                 (Linear)    (Quad)   (Total)
    R1        2.05357   0.00000   0.00000   0.00001   0.00001   2.05358
    R2        2.05781  -0.00002   0.00000  -0.00004  -0.00004   2.05777
    R3        2.51982  -0.00002   0.00000   0.00002   0.00002   2.51985
    R4        2.85879  -0.00029   0.00000  -0.00108  -0.00108   2.85771
    R5        2.05998  -0.00002   0.00000  -0.00007  -0.00007   2.05991
    R6        2.07287   0.00000   0.00000  -0.00007  -0.00007   2.07281
    R7        2.07303   0.00002   0.00000   0.00020   0.00020   2.07322
    R8        2.06781   0.00001   0.00000   0.00006   0.00006   2.06788
    A1        2.03137   0.00000   0.00000  -0.00002  -0.00002   2.03135
    A2        2.12358   0.00000   0.00000   0.00004   0.00004   2.12362
    A3        2.12823   0.00000   0.00000  -0.00002  -0.00002   2.12821
    A4        2.18212  -0.00006   0.00000  -0.00032  -0.00032   2.18180
    A5        2.06783   0.00001   0.00000  -0.00015  -0.00015   2.06769
    A6        2.03324   0.00005   0.00000   0.00046   0.00046   2.03370
    A7        1.94614   0.00000   0.00000   0.00028   0.00028   1.94642
    A8        1.94575   0.00001   0.00000   0.00002   0.00002   1.94577
    A9        1.94627   0.00004   0.00000   0.00049   0.00049   1.94675
   A10        1.86995  -0.00002   0.00000  -0.00029  -0.00029   1.86966
   A11        1.87614  -0.00001   0.00000   0.00015   0.00015   1.87629
   A12        1.87568  -0.00003   0.00000  -0.00071  -0.00071   1.87496
    D1        3.14024   0.00001   0.00000  -0.00043  -0.00043   3.13981
    D2       -0.00064   0.00001   0.00000  -0.00003  -0.00003  -0.00067
    D3       -0.00116   0.00000   0.00000  -0.00084  -0.00084  -0.00200
    D4        3.14114   0.00000   0.00000  -0.00044  -0.00044   3.14070
    D5        1.03107  -0.00004   0.00000  -0.01370  -0.01370   1.01736
    D6       -1.05813  -0.00003   0.00000  -0.01354  -0.01354  -1.07167
    D7        3.12849  -0.00003   0.00000  -0.01298  -0.01298   3.11551
    D8       -2.11122  -0.00004   0.00000  -0.01409  -0.01409  -2.12532
    D9        2.08277  -0.00003   0.00000  -0.01393  -0.01393   2.06884
   D10       -0.01380  -0.00003   0.00000  -0.01337  -0.01337  -0.02717
         Item               Value     Threshold  Converged?
 Maximum Force            0.000290     0.000450     YES
 RMS     Force            0.000058     0.000300     YES
 Maximum Displacement     0.016206     0.001800     NO 
 RMS     Displacement     0.006663     0.001200     NO 
 Predicted change in Energy=-4.248949D-06
 GradGradGradGradGradGradGradGradGradGradGradGradGradGradGradGradGradGrad

 1|1|UNPC-CBEGRAD02|Freq|RB3LYP|6-31G(d)|C3H6|GPD20001|10-Dec-2021|0||#
 N Geom=AllCheck Guess=TCheck SCRF=Check GenChk RB3LYP/6-31G(d) Freq||C
 3H6 - Opt + freq||0,1|C,0.1511078631,1.2733132918,0.1180077718|H,0.185
 4769618,2.2122432225,-0.4280213996|H,0.1892910027,1.3433183366,1.20403
 13964|C,0.0669388896,0.1004335177,-0.5107306329|C,0.0160113424,-1.2488
 046569,0.171581116|H,-0.8432012558,-1.3245404736,0.849257623|H,0.91704
 15418,-1.4304594542,0.7703725459|H,0.031805723,0.0960720019,-1.6002505
 332|H,-0.0652542388,-2.0630365658,-0.5549052474||Version=EM64W-G09RevD
 .01|State=1-A|HF=-117.9042428|RMSD=2.063e-009|RMSF=8.957e-005|ZeroPoin
 t=0.0796382|Thermal=0.0831793|Dipole=-0.0063732,-0.134143,0.0045761|Di
 poleDeriv=-0.3010005,0.0083962,0.0108663,0.0086333,-0.1277756,-0.03934
 12,0.0102562,-0.0471891,0.1055834,0.1348206,-0.0099849,-0.0012521,-0.0
 108353,-0.0918367,0.0532542,-0.0001607,0.0756999,0.0002644,0.1248369,-
 0.005336,-0.0068248,-0.0041169,0.0431814,0.0154319,-0.0087672,-0.01850
 55,-0.1219056,-0.1584024,0.0149544,0.0071258,0.0209826,0.2551371,-0.03
 51181,0.0014451,-0.1616827,0.147559,0.1182118,0.0056131,0.0011416,-0.0
 014871,0.061914,0.0452033,0.005658,0.1453733,0.05645,-0.0493728,-0.034
 8693,0.0959732,-0.00337,-0.0176183,0.0050905,0.1016074,0.0437465,-0.01
 04749,-0.0612899,0.0429233,-0.0898759,0.0100222,-0.0242327,0.0160568,-
 0.0910935,0.052763,0.0071393,0.1231272,-0.0064585,-0.0082097,-0.007196
 ,-0.0085105,0.0069934,-0.0072777,0.0215868,-0.1442066,0.0690692,-0.015
 2383,-0.0089445,-0.0126328,-0.0902588,-0.0675707,-0.0116675,-0.1117923
 ,-0.0404091|Polar=18.9729483,1.3684863,42.3915423,0.5758564,3.0911119,
 31.6041137|PG=C01 [X(C3H6)]|NImag=1||0.10613603,0.04205240,0.81921452,
 0.02337110,0.08840768,0.68943028,-0.03190773,-0.00878060,0.00353811,0.
 02316246,-0.00891279,-0.26479861,0.12381353,0.01004417,0.28275519,0.00
 377671,0.12811409,-0.13450802,-0.00388224,-0.13431292,0.13341127,-0.03
 619605,-0.00180005,-0.01000147,0.00191356,0.00005547,0.00096793,0.0237
 3516,-0.00171844,-0.06044057,-0.01120420,0.00093457,0.00436433,0.02505
 392,0.00235691,0.05525820,-0.01017695,-0.01429088,-0.33314540,-0.00055
 838,-0.00262564,-0.01104899,0.01154140,0.01896354,0.35547052,-0.052133
 33,-0.02867798,-0.01584359,0.00355001,-0.00080045,-0.00063614,0.005391
 00,-0.00108727,-0.00056098,0.14660018,-0.02868657,-0.46257810,-0.19133
 463,-0.00183971,-0.02105974,-0.01611662,-0.00014097,0.00330757,0.00070
 479,0.03774576,0.75910348,-0.01592218,-0.19282904,-0.22038034,0.001158
 11,0.01710843,0.01117950,-0.00226289,-0.03057667,-0.01351798,0.0244476
 1,0.13485275,0.67719494,0.00419024,-0.00207812,0.00104467,0.01063043,-
 0.00083283,-0.00043720,-0.00662739,0.00048843,0.00031015,-0.06851368,-
 0.00516826,0.00159784,0.54122942,-0.00136398,-0.03022138,0.01389330,-0
 .00070399,-0.00137712,-0.00163159,0.00052182,0.00186580,0.00114823,-0.
 00477601,-0.18942164,0.05584151,0.00020694,0.51384920,-0.00013567,-0.0
 0819428,0.01342454,-0.00055237,-0.00465224,-0.00077809,0.00020024,-0.0
 0001340,0.00106275,0.00100517,0.04829918,-0.11666355,0.00239282,0.0418
 6062,0.55263667,0.00155809,0.00024181,0.00026879,0.00017579,-0.0001526
 1,-0.00020790,-0.00039782,-0.00033442,-0.00011058,0.00222795,-0.000972
 26,-0.00134390,-0.20936152,-0.01114732,0.12726468,0.22559734,0.0010569
 2,0.00062827,0.00144437,0.00152960,0.00010278,-0.00028756,-0.00088115,
 -0.00013361,-0.00071073,-0.02357935,-0.00444349,0.01892844,-0.01324111
 ,-0.04770076,0.00762019,0.01149148,0.05212246,-0.00061219,-0.00206483,
 0.00061129,-0.00110170,0.00014348,0.00002945,0.00121772,0.00003500,0.0
 0025040,0.00907389,0.00394746,-0.01063221,0.12818819,0.00612258,-0.145
 56352,-0.14030675,-0.01114870,0.15637740,0.00142795,-0.00052731,-0.000
 19406,0.00010869,0.00016443,0.00016063,-0.00034771,0.00034496,0.000066
 53,0.00453224,0.00040906,0.00224583,-0.22583983,0.03236263,-0.11784731
 ,-0.02212131,0.00291334,-0.01496993,0.24417239,-0.00104288,0.00074604,
 0.00158783,-0.00161075,0.00023964,-0.00020525,0.00088885,-0.00026287,-
 0.00075650,0.02410759,-0.00759955,0.01649464,0.03473361,-0.05293818,0.
 02033683,-0.00043541,-0.00007728,-0.00096667,-0.03491222,0.05760556,0.
 00029006,-0.00205766,0.00055566,0.00109142,0.00001421,-0.00005733,-0.0
 0114723,0.00012154,0.00030209,-0.00971013,0.00501646,-0.00977843,-0.11
 910476,0.01913196,-0.12343201,0.01788676,-0.00308921,0.01303388,0.1298
 0507,-0.02532788,0.13201907,0.00627454,-0.00023212,-0.00238468,-0.0082
 4554,0.00050694,0.00030792,0.01282696,-0.00101731,-0.00052890,-0.03961
 772,-0.00090597,-0.00921211,0.00522799,-0.00043000,0.00090331,-0.00092
 308,-0.00032460,0.00013451,-0.00090143,0.00021622,0.00019419,0.0248565
 2,-0.00125723,0.00160616,-0.03145108,0.00051302,0.00107043,0.00000937,
 -0.00101817,-0.00420245,-0.00253722,-0.00082125,-0.05598934,0.00229853
 ,0.00040476,-0.00053026,0.02555333,0.00019542,-0.00257875,0.00220460,-
 0.00017177,-0.00247506,0.00214163,0.00211698,0.06166354,-0.00062158,0.
 00079040,-0.01448024,0.00030427,-0.00022330,0.00146078,-0.00054894,-0.
 00260426,0.00040546,-0.00935823,-0.00111023,-0.32941282,-0.00050741,-0
 .00163504,-0.00909291,-0.00058258,0.00136289,-0.00056336,0.00071567,0.
 00122708,-0.00062615,0.01055701,0.00203553,0.35091549,0.00065027,-0.00
 019804,0.00020113,0.00061234,-0.00007233,-0.00004972,-0.00029772,0.000
 03256,0.00001772,-0.00203664,-0.00044110,-0.00070831,-0.05093565,-0.01
 467009,-0.01323087,0.00324456,0.02103486,0.01837626,-0.00103097,-0.021
 94498,-0.01930538,0.00050177,0.00003824,0.00004178,0.04929206,-0.00012
 742,-0.00415634,0.00484320,-0.00008631,-0.00129689,-0.00062344,0.00001
 728,0.00024360,0.00010441,-0.00211104,-0.02131920,-0.02211860,-0.01451
 343,-0.19352567,-0.13081022,0.00111331,0.00208039,0.00172707,-0.000583
 12,0.00476171,0.00404895,0.00006985,0.00143572,0.00015693,0.01622089,0
 .21177668,0.00003070,0.00212451,-0.00150776,0.00000279,0.00073444,0.00
 031143,0.00003324,0.00022453,0.00022114,0.00158241,0.01574083,0.012010
 88,-0.01348431,-0.13473157,-0.17159388,-0.00286853,-0.01411969,-0.0135
 4333,0.00001757,-0.01239008,-0.01201678,0.00002875,-0.00025469,0.00139
 376,0.01465738,0.14267170,0.18472454||0.00003255,0.00002922,-0.0000374
 4,0.00001383,-0.00000432,-0.00000113,0.00000236,0.00000089,0.00001522,
 0.00000913,0.00026514,-0.00006546,0.00002849,-0.00032746,0.00014259,-0
 .00002433,-0.00000509,-0.00003370,-0.00002420,0.00003459,0.00001715,-0
 .00006001,-0.00002052,-0.00002222,0.00002217,0.00002756,-0.00001501|||
 @


 NATURE WILL TELL YOU A DIRECT LIE IF SHE CAN.

                                -- CHARLES DARWIN
 Job cpu time:       0 days  0 hours  0 minutes 37.0 seconds.
 File lengths (MBytes):  RWF=      6 Int=      0 D2E=      0 Chk=      1 Scr=      1
 Normal termination of Gaussian 09 at Fri Dec 10 14:40:19 2021.
