 Entering Link 1 = C:\G09W\l1.exe PID=     12016.
  
 Copyright (c) 1988,1990,1992,1993,1995,1998,2003,2009,2013,
            Gaussian, Inc.  All Rights Reserved.
  
 This is part of the Gaussian(R) 09 program.  It is based on
 the Gaussian(R) 03 system (copyright 2003, Gaussian, Inc.),
 the Gaussian(R) 98 system (copyright 1998, Gaussian, Inc.),
 the Gaussian(R) 94 system (copyright 1995, Gaussian, Inc.),
 the Gaussian 92(TM) system (copyright 1992, Gaussian, Inc.),
 the Gaussian 90(TM) system (copyright 1990, Gaussian, Inc.),
 the Gaussian 88(TM) system (copyright 1988, Gaussian, Inc.),
 the Gaussian 86(TM) system (copyright 1986, Carnegie Mellon
 University), and the Gaussian 82(TM) system (copyright 1983,
 Carnegie Mellon University). Gaussian is a federally registered
 trademark of Gaussian, Inc.
  
 This software contains proprietary and confidential information,
 including trade secrets, belonging to Gaussian, Inc.
  
 This software is provided under written license and may be
 used, copied, transmitted, or stored only in accord with that
 written license.
  
 The following legend is applicable only to US Government
 contracts under FAR:
  
                    RESTRICTED RIGHTS LEGEND
  
 Use, reproduction and disclosure by the US Government is
 subject to restrictions as set forth in subparagraphs (a)
 and (c) of the Commercial Computer Software - Restricted
 Rights clause in FAR 52.227-19.
  
 Gaussian, Inc.
 340 Quinnipiac St., Bldg. 40, Wallingford CT 06492
  
  
 ---------------------------------------------------------------
 Warning -- This program may not be used in any manner that
 competes with the business of Gaussian, Inc. or will provide
 assistance to any competitor of Gaussian, Inc.  The licensee
 of this program is prohibited from giving any competitor of
 Gaussian, Inc. access to this program.  By using this program,
 the user acknowledges that Gaussian, Inc. is engaged in the
 business of creating and licensing software in the field of
 computational chemistry and represents and warrants to the
 licensee that it is not a competitor of Gaussian, Inc. and that
 it will not use this program in any manner prohibited above.
 ---------------------------------------------------------------
  

 Cite this work as:
 Gaussian 09, Revision D.01,
 M. J. Frisch, G. W. Trucks, H. B. Schlegel, G. E. Scuseria, 
 M. A. Robb, J. R. Cheeseman, G. Scalmani, V. Barone, B. Mennucci, 
 G. A. Petersson, H. Nakatsuji, M. Caricato, X. Li, H. P. Hratchian, 
 A. F. Izmaylov, J. Bloino, G. Zheng, J. L. Sonnenberg, M. Hada, 
 M. Ehara, K. Toyota, R. Fukuda, J. Hasegawa, M. Ishida, T. Nakajima, 
 Y. Honda, O. Kitao, H. Nakai, T. Vreven, J. A. Montgomery, Jr., 
 J. E. Peralta, F. Ogliaro, M. Bearpark, J. J. Heyd, E. Brothers, 
 K. N. Kudin, V. N. Staroverov, T. Keith, R. Kobayashi, J. Normand, 
 K. Raghavachari, A. Rendell, J. C. Burant, S. S. Iyengar, J. Tomasi, 
 M. Cossi, N. Rega, J. M. Millam, M. Klene, J. E. Knox, J. B. Cross, 
 V. Bakken, C. Adamo, J. Jaramillo, R. Gomperts, R. E. Stratmann, 
 O. Yazyev, A. J. Austin, R. Cammi, C. Pomelli, J. W. Ochterski, 
 R. L. Martin, K. Morokuma, V. G. Zakrzewski, G. A. Voth, 
 P. Salvador, J. J. Dannenberg, S. Dapprich, A. D. Daniels, 
 O. Farkas, J. B. Foresman, J. V. Ortiz, J. Cioslowski, 
 and D. J. Fox, Gaussian, Inc., Wallingford CT, 2013.
 
 ******************************************
 Gaussian 09:  EM64W-G09RevD.01 13-Apr-2013
                13-Dec-2021 
 ******************************************
 -------------------------
 # opt freq b3lyp/6-31g(d)
 -------------------------
 1/14=-1,18=20,19=15,26=3,38=1/1,3;
 2/9=110,12=2,17=6,18=5,40=1/2;
 3/5=1,6=6,7=1,11=2,16=1,25=1,30=1,71=1,74=-5/1,2,3;
 4//1;
 5/5=2,38=5/2;
 6/7=2,8=2,9=2,10=2,28=1/1;
 7//1,2,3,16;
 1/14=-1,18=20,19=15,26=3/3(2);
 2/9=110/2;
 99//99;
 2/9=110/2;
 3/5=1,6=6,7=1,11=2,16=1,25=1,30=1,71=1,74=-5/1,2,3;
 4/5=5,16=3,69=1/1;
 5/5=2,38=5/2;
 7//1,2,3,16;
 1/14=-1,18=20,19=15,26=3/3(-5);
 2/9=110/2;
 6/7=2,8=2,9=2,10=2,19=2,28=1/1;
 99/9=1/99;
 -----------------
 C3H6 - opt + Freq
 -----------------
 Symbolic Z-matrix:
 Charge =  0 Multiplicity = 1
 C                    -1.36617  -0.01168  -0.22562 
 H                    -2.32916   0.21956   0.2217 
 H                    -1.74957  -0.75895  -0.91872 
 C                    -0.13931   0.45957  -0.00029 
 C                     1.19982   0.441     0.70325 
 H                     1.72097  -0.5121    0.55081 
 H                     1.08686   0.57816   1.78576 
 H                    -0.04145   1.30807  -0.67762 
 H                     1.85605   1.23682   0.33803 
 

 GradGradGradGradGradGradGradGradGradGradGradGradGradGradGradGradGradGrad
 Berny optimization.
 Initialization pass.
                           ----------------------------
                           !    Initial Parameters    !
                           ! (Angstroms and Degrees)  !
 --------------------------                            --------------------------
 ! Name  Definition              Value          Derivative Info.                !
 --------------------------------------------------------------------------------
 ! R1    R(1,2)                  1.0867         estimate D2E/DX2                !
 ! R2    R(1,3)                  1.0889         estimate D2E/DX2                !
 ! R3    R(1,4)                  1.3334         estimate D2E/DX2                !
 ! R4    R(4,5)                  1.5128         estimate D2E/DX2                !
 ! R5    R(4,8)                  1.0901         estimate D2E/DX2                !
 ! R6    R(5,6)                  1.0969         estimate D2E/DX2                !
 ! R7    R(5,7)                  1.097          estimate D2E/DX2                !
 ! R8    R(5,9)                  1.0942         estimate D2E/DX2                !
 ! A1    A(2,1,3)               95.51           estimate D2E/DX2                !
 ! A2    A(2,1,4)              132.1117         estimate D2E/DX2                !
 ! A3    A(3,1,4)              132.3783         estimate D2E/DX2                !
 ! A4    A(1,4,5)              152.71           estimate D2E/DX2                !
 ! A5    A(1,4,8)              104.6362         estimate D2E/DX2                !
 ! A6    A(5,4,8)              102.6538         estimate D2E/DX2                !
 ! A7    A(4,5,6)              111.5055         estimate D2E/DX2                !
 ! A8    A(4,5,7)              111.4831         estimate D2E/DX2                !
 ! A9    A(4,5,9)              111.5128         estimate D2E/DX2                !
 ! A10   A(6,5,7)              107.1403         estimate D2E/DX2                !
 ! A11   A(6,5,9)              107.4949         estimate D2E/DX2                !
 ! A12   A(7,5,9)              107.4683         estimate D2E/DX2                !
 ! D1    D(2,1,4,5)             89.9435         estimate D2E/DX2                !
 ! D2    D(2,1,4,8)            -90.0197         estimate D2E/DX2                !
 ! D3    D(3,1,4,5)            -90.0405         estimate D2E/DX2                !
 ! D4    D(3,1,4,8)             89.9963         estimate D2E/DX2                !
 ! D5    D(1,4,5,6)             59.0757         estimate D2E/DX2                !
 ! D6    D(1,4,5,7)            -60.6264         estimate D2E/DX2                !
 ! D7    D(1,4,5,9)            179.2492         estimate D2E/DX2                !
 ! D8    D(8,4,5,6)           -120.9608         estimate D2E/DX2                !
 ! D9    D(8,4,5,7)            119.3371         estimate D2E/DX2                !
 ! D10   D(8,4,5,9)             -0.7873         estimate D2E/DX2                !
 --------------------------------------------------------------------------------
 Trust Radius=3.00D-01 FncErr=1.00D-07 GrdErr=1.00D-06
 Number of steps in this run=     40 maximum allowed number of steps=    100.
 GradGradGradGradGradGradGradGradGradGradGradGradGradGradGradGradGradGrad

                          Input orientation:                          
 ---------------------------------------------------------------------
 Center     Atomic      Atomic             Coordinates (Angstroms)
 Number     Number       Type             X           Y           Z
 ---------------------------------------------------------------------
      1          6           0       -1.366170   -0.011677   -0.225618
      2          1           0       -2.329162    0.219557    0.221703
      3          1           0       -1.749568   -0.758947   -0.918725
      4          6           0       -0.139306    0.459573   -0.000289
      5          6           0        1.199824    0.440998    0.703254
      6          1           0        1.720969   -0.512101    0.550806
      7          1           0        1.086859    0.578165    1.785765
      8          1           0       -0.041452    1.308074   -0.677619
      9          1           0        1.856052    1.236822    0.338031
 ---------------------------------------------------------------------
                    Distance matrix (angstroms):
                    1          2          3          4          5
     1  C    0.000000
     2  H    1.086701   0.000000
     3  H    1.088946   1.610582   0.000000
     4  C    1.333433   2.214127   2.218391   0.000000
     5  C    2.766232   3.568567   3.573457   1.512808   0.000000
     6  H    3.222372   4.128824   3.776914   2.169903   1.096918
     7  H    3.226596   3.774134   4.140948   2.169685   1.096998
     8  H    1.923779   2.688358   2.692280   1.090094   2.049243
     9  H    3.501308   4.308640   4.308483   2.167955   1.094239
                    6          7          8          9
     6  H    0.000000
     7  H    1.765191   0.000000
     8  H    2.815704   2.806085   0.000000
     9  H    1.766989   1.766754   2.153403   0.000000
 Stoichiometry    C3H6
 Framework group  C1[X(C3H6)]
 Deg. of freedom    21
 Full point group                 C1      NOp   1
 Largest Abelian subgroup         C1      NOp   1
 Largest concise Abelian subgroup C1      NOp   1
                         Standard orientation:                         
 ---------------------------------------------------------------------
 Center     Atomic      Atomic             Coordinates (Angstroms)
 Number     Number       Type             X           Y           Z
 ---------------------------------------------------------------------
      1          6           0       -1.404570   -0.106961   -0.000027
      2          1           0       -2.110973   -0.285449    0.806233
      3          1           0       -2.116472   -0.286072   -0.804340
      4          6           0       -0.111550    0.218836   -0.000217
      5          6           0        1.361602   -0.125271   -0.000138
      6          1           0        1.633847   -0.727819   -0.875380
      7          1           0        1.638968   -0.703862    0.889640
      8          1           0       -0.102153    1.308890    0.000012
      9          1           0        1.983891    0.774688   -0.013874
 ---------------------------------------------------------------------
 Rotational constants (GHZ):     69.1789998      7.5083121      7.3392100
 Standard basis: 6-31G(d) (6D, 7F)
 There are    57 symmetry adapted cartesian basis functions of A   symmetry.
 There are    57 symmetry adapted basis functions of A   symmetry.
    57 basis functions,   108 primitive gaussians,    57 cartesian basis functions
    12 alpha electrons       12 beta electrons
       nuclear repulsion energy        69.3423284134 Hartrees.
 NAtoms=    9 NActive=    9 NUniq=    9 SFac= 1.00D+00 NAtFMM=   60 NAOKFM=F Big=F
 Integral buffers will be    131072 words long.
 Raffenetti 2 integral format.
 Two-electron integral symmetry is turned on.
 One-electron integrals computed using PRISM.
 NBasis=    57 RedAO= T EigKep=  4.16D-03  NBF=    57
 NBsUse=    57 1.00D-06 EigRej= -1.00D+00 NBFU=    57
 ExpMin= 1.61D-01 ExpMax= 3.05D+03 ExpMxC= 4.57D+02 IAcc=1 IRadAn=         1 AccDes= 0.00D+00
 Harris functional with IExCor=  402 and IRadAn=       1 diagonalized for initial guess.
 HarFok:  IExCor=  402 AccDes= 0.00D+00 IRadAn=         1 IDoV= 1 UseB2=F ITyADJ=14
 ICtDFT=  3500011 ScaDFX=  1.000000  1.000000  1.000000  1.000000
 FoFCou: FMM=F IPFlag=           0 FMFlag=      100000 FMFlg1=           0
         NFxFlg=           0 DoJE=T BraDBF=F KetDBF=T FulRan=T
         wScrn=  0.000000 ICntrl=     500 IOpCl=  0 I1Cent=   200000004 NGrid=           0
         NMat0=    1 NMatS0=      1 NMatT0=    0 NMatD0=    1 NMtDS0=    0 NMtDT0=    0
 Petite list used in FoFCou.
 Keep R1 ints in memory in canonical form, NReq=2273549.
 Requested convergence on RMS density matrix=1.00D-08 within 128 cycles.
 Requested convergence on MAX density matrix=1.00D-06.
 Requested convergence on             energy=1.00D-06.
 No special actions if energy rises.
 Integral accuracy reduced to 1.0D-05 until final iterations.
 Initial convergence to 1.0D-05 achieved.  Increase integral accuracy.
 SCF Done:  E(RB3LYP) =  -117.721598488     A.U. after   20 cycles
            NFock= 20  Conv=0.32D-08     -V/T= 2.0079

 **********************************************************************

            Population analysis using the SCF density.

 **********************************************************************

 Orbital symmetries:
       Occupied  (A) (A) (A) (A) (A) (A) (A) (A) (A) (A) (A) (A)
       Virtual   (A) (A) (A) (A) (A) (A) (A) (A) (A) (A) (A) (A)
                 (A) (A) (A) (A) (A) (A) (A) (A) (A) (A) (A) (A)
                 (A) (A) (A) (A) (A) (A) (A) (A) (A) (A) (A) (A)
                 (A) (A) (A) (A) (A) (A) (A) (A) (A)
 The electronic state is 1-A.
 Alpha  occ. eigenvalues --  -10.19368 -10.18954 -10.18501  -0.78030  -0.69830
 Alpha  occ. eigenvalues --   -0.56435  -0.45287  -0.41922  -0.41868  -0.38165
 Alpha  occ. eigenvalues --   -0.35324  -0.14410
 Alpha virt. eigenvalues --   -0.08373   0.10789   0.13628   0.14362   0.16592
 Alpha virt. eigenvalues --    0.20336   0.22227   0.24477   0.36735   0.46817
 Alpha virt. eigenvalues --    0.56522   0.57154   0.59567   0.60197   0.69427
 Alpha virt. eigenvalues --    0.74645   0.76934   0.79785   0.83255   0.85998
 Alpha virt. eigenvalues --    0.87310   0.89284   0.91396   0.95989   0.98235
 Alpha virt. eigenvalues --    1.09144   1.31733   1.47275   1.61486   1.62940
 Alpha virt. eigenvalues --    1.79298   1.84154   1.95208   2.04540   2.06557
 Alpha virt. eigenvalues --    2.13640   2.24703   2.26008   2.34810   2.60082
 Alpha virt. eigenvalues --    2.73356   2.98256   4.08743   4.19276   4.47236
          Condensed to atoms (all electrons):
               1          2          3          4          5          6
     1  C    5.301555   0.347266   0.326496   0.555474  -0.049118   0.005285
     2  H    0.347266   0.618660  -0.104214  -0.023039   0.004667  -0.000429
     3  H    0.326496  -0.104214   0.673690  -0.051782  -0.003370   0.001302
     4  C    0.555474  -0.023039  -0.051782   4.983970   0.372838  -0.047685
     5  C   -0.049118   0.004667  -0.003370   0.372838   5.156286   0.316218
     6  H    0.005285  -0.000429   0.001302  -0.047685   0.316218   0.627420
     7  H   -0.005792   0.000286  -0.000167  -0.036964   0.394502  -0.036270
     8  H   -0.095848  -0.009887   0.016135   0.350001  -0.093265   0.012973
     9  H    0.003581  -0.000133   0.000051  -0.016238   0.364643  -0.024902
               7          8          9
     1  C   -0.005792  -0.095848   0.003581
     2  H    0.000286  -0.009887  -0.000133
     3  H   -0.000167   0.016135   0.000051
     4  C   -0.036964   0.350001  -0.016238
     5  C    0.394502  -0.093265   0.364643
     6  H   -0.036270   0.012973  -0.024902
     7  H    0.538131  -0.000831  -0.036734
     8  H   -0.000831   0.687423  -0.008268
     9  H   -0.036734  -0.008268   0.559299
 Mulliken charges:
               1
     1  C   -0.388899
     2  H    0.166823
     3  H    0.141858
     4  C   -0.086575
     5  C   -0.463402
     6  H    0.146088
     7  H    0.183839
     8  H    0.141567
     9  H    0.158701
 Sum of Mulliken charges =   0.00000
 Mulliken charges with hydrogens summed into heavy atoms:
               1
     1  C   -0.080218
     4  C    0.054992
     5  C    0.025225
 Electronic spatial extent (au):  <R**2>=            215.7163
 Charge=              0.0000 electrons
 Dipole moment (field-independent basis, Debye):
    X=              0.4317    Y=              0.1333    Z=              0.0505  Tot=              0.4546
 Quadrupole moment (field-independent basis, Debye-Ang):
   XX=            -18.2169   YY=            -20.4291   ZZ=            -20.5629
   XY=              0.3965   XZ=              0.2330   YZ=             -0.9275
 Traceless Quadrupole moment (field-independent basis, Debye-Ang):
   XX=              1.5194   YY=             -0.6928   ZZ=             -0.8266
   XY=              0.3965   XZ=              0.2330   YZ=             -0.9275
 Octapole moment (field-independent basis, Debye-Ang**2):
  XXX=             -1.7560  YYY=              1.2699  ZZZ=              0.2596  XYY=              1.9367
  XXY=             -0.6865  XXZ=              1.2333  XZZ=              0.5605  YZZ=             -0.8440
  YYZ=             -0.0610  XYZ=              0.4260
 Hexadecapole moment (field-independent basis, Debye-Ang**3):
 XXXX=           -213.8033 YYYY=            -39.5472 ZZZZ=            -34.0972 XXXY=              4.9440
 XXXZ=              1.8168 YYYX=             -0.0152 YYYZ=             -1.5889 ZZZX=              0.4103
 ZZZY=             -1.1977 XXYY=            -44.5989 XXZZ=            -41.4281 YYZZ=            -12.3131
 XXYZ=             -2.8872 YYXZ=             -0.2488 ZZXY=             -0.6974
 N-N= 6.934232841345D+01 E-N=-4.106164494245D+02  KE= 1.167940021725D+02
 Calling FoFJK, ICntrl=      2127 FMM=F ISym2X=0 I1Cent= 0 IOpClX= 0 NMat=1 NMatS=1 NMatT=0.
 ***** Axes restored to original set *****
 -------------------------------------------------------------------
 Center     Atomic                   Forces (Hartrees/Bohr)
 Number     Number              X              Y              Z
 -------------------------------------------------------------------
      1        6          -0.057966666   -0.072843301   -0.014562618
      2        1          -0.006960345    0.064402022   -0.017942401
      3        1           0.023517373   -0.056200414    0.022617870
      4        6           0.053666643    0.062195771   -0.005905535
      5        6           0.009733629   -0.050742104   -0.026437020
      6        1           0.011035038   -0.004587226    0.008828103
      7        1          -0.007832520   -0.000004691   -0.000952389
      8        1          -0.020632387    0.058069516    0.035758260
      9        1          -0.004560765   -0.000289572   -0.001404269
 -------------------------------------------------------------------
 Cartesian Forces:  Max     0.072843301 RMS     0.035041492

 GradGradGradGradGradGradGradGradGradGradGradGradGradGradGradGradGradGrad
 Berny optimization.
 FormGI is forming the generalized inverse of G from B-inverse, IUseBI=4.
 Internal  Forces:  Max     0.062615839 RMS     0.026402128
 Search for a local minimum.
 Step number   1 out of a maximum of   40
 All quantities printed in internal units (Hartrees-Bohrs-Radians)
 Mixed Optimization -- RFO/linear search
 Second derivative matrix not updated -- first step.
 ITU=  0
     Eigenvalues ---    0.00597   0.01555   0.02969   0.02969   0.07028
     Eigenvalues ---    0.07050   0.16000   0.16000   0.16000   0.16000
     Eigenvalues ---    0.16000   0.16000   0.22000   0.31070   0.34016
     Eigenvalues ---    0.34025   0.34327   0.34802   0.34935   0.35197
     Eigenvalues ---    0.58702
 RFO step:  Lambda=-1.00882835D-01 EMin= 5.96521926D-03
 Linear search not attempted -- first point.
 Maximum step size (   0.300) exceeded in Quadratic search.
    -- Step size scaled by   0.937
 Iteration  1 RMS(Cart)=  0.11292685 RMS(Int)=  0.05295721
 Iteration  2 RMS(Cart)=  0.05247214 RMS(Int)=  0.00256554
 Iteration  3 RMS(Cart)=  0.00256755 RMS(Int)=  0.00078871
 Iteration  4 RMS(Cart)=  0.00000580 RMS(Int)=  0.00078869
 Iteration  5 RMS(Cart)=  0.00000000 RMS(Int)=  0.00078869
 Variable       Old X    -DE/DX   Delta X   Delta X   Delta X     New X
                                 (Linear)    (Quad)   (Total)
    R1        2.05357   0.01249   0.00000   0.02585   0.02585   2.07941
    R2        2.05781   0.01589   0.00000   0.03308   0.03308   2.09090
    R3        2.51982   0.06262   0.00000   0.08533   0.08533   2.60515
    R4        2.85879  -0.00119   0.00000  -0.00271  -0.00271   2.85609
    R5        2.05998   0.02113   0.00000   0.04412   0.04412   2.10410
    R6        2.07287   0.00800   0.00000   0.01700   0.01700   2.08988
    R7        2.07303  -0.00013   0.00000  -0.00028  -0.00028   2.07274
    R8        2.06781  -0.00248   0.00000  -0.00523  -0.00523   2.06258
    A1        1.66696   0.03516   0.00000   0.12635   0.12635   1.79332
    A2        2.30578  -0.02490   0.00000  -0.08946  -0.08946   2.21632
    A3        2.31044  -0.01027   0.00000  -0.03689  -0.03689   2.27355
    A4        2.66529  -0.05426   0.00000  -0.15852  -0.16040   2.50489
    A5        1.82625   0.02952   0.00000   0.08784   0.08591   1.91215
    A6        1.79165   0.02474   0.00000   0.07065   0.06879   1.86044
    A7        1.94614   0.02135   0.00000   0.08103   0.08139   2.02753
    A8        1.94575  -0.01500   0.00000  -0.05835  -0.05839   1.88735
    A9        1.94627  -0.00644   0.00000  -0.02299  -0.02385   1.92242
   A10        1.86995  -0.00355   0.00000  -0.01301  -0.01192   1.85803
   A11        1.87614  -0.00234   0.00000  -0.00012  -0.00046   1.87568
   A12        1.87568   0.00600   0.00000   0.01351   0.01211   1.88779
    D1        1.56981   0.03651   0.00000   0.25458   0.25426   1.82407
    D2       -1.57114   0.05370   0.00000   0.39302   0.39334  -1.17780
    D3       -1.57150   0.03626   0.00000   0.25284   0.25251  -1.31899
    D4        1.57073   0.05346   0.00000   0.39127   0.39159   1.96232
    D5        1.03106   0.00503   0.00000   0.04612   0.04530   1.07636
    D6       -1.05813   0.00524   0.00000   0.04729   0.04802  -1.01011
    D7        3.12849   0.01226   0.00000   0.08572   0.08500  -3.06970
    D8       -2.11116  -0.01202   0.00000  -0.09116  -0.09143  -2.20260
    D9        2.08283  -0.01181   0.00000  -0.08998  -0.08871   1.99412
   D10       -0.01374  -0.00479   0.00000  -0.05155  -0.05173  -0.06547
         Item               Value     Threshold  Converged?
 Maximum Force            0.062616     0.000450     NO 
 RMS     Force            0.026402     0.000300     NO 
 Maximum Displacement     0.381401     0.001800     NO 
 RMS     Displacement     0.146287     0.001200     NO 
 Predicted change in Energy=-7.806762D-02
 GradGradGradGradGradGradGradGradGradGradGradGradGradGradGradGradGradGrad

                          Input orientation:                          
 ---------------------------------------------------------------------
 Center     Atomic      Atomic             Coordinates (Angstroms)
 Number     Number       Type             X           Y           Z
 ---------------------------------------------------------------------
      1          6           0       -1.366702   -0.032258   -0.224605
      2          1           0       -2.317641    0.362315    0.163802
      3          1           0       -1.679404   -0.960776   -0.738718
      4          6           0       -0.115717    0.529111   -0.081773
      5          6           0        1.192826    0.407498    0.664673
      6          1           0        1.755506   -0.532365    0.512689
      7          1           0        0.980485    0.472310    1.738818
      8          1           0       -0.066885    1.481779   -0.656052
      9          1           0        1.855580    1.232850    0.398474
 ---------------------------------------------------------------------
                    Distance matrix (angstroms):
                    1          2          3          4          5
     1  C    0.000000
     2  H    1.100378   0.000000
     3  H    1.106454   1.724082   0.000000
     4  C    1.378586   2.221845   2.257533   0.000000
     5  C    2.745065   3.546307   3.477267   1.511376   0.000000
     6  H    3.246828   4.184818   3.680783   2.231948   1.105916
     7  H    3.101435   3.656556   3.907291   2.125896   1.096848
     8  H    2.041562   2.644099   2.927990   1.113443   2.117845
     9  H    3.517360   4.269505   4.312924   2.147533   1.091472
                    6          7          8          9
     6  H    0.000000
     7  H    1.764488   0.000000
     8  H    2.956998   2.802037   0.000000
     9  H    1.771735   1.772212   2.206776   0.000000
 Stoichiometry    C3H6
 Framework group  C1[X(C3H6)]
 Deg. of freedom    21
 Full point group                 C1      NOp   1
 Largest Abelian subgroup         C1      NOp   1
 Largest concise Abelian subgroup C1      NOp   1
                         Standard orientation:                         
 ---------------------------------------------------------------------
 Center     Atomic      Atomic             Coordinates (Angstroms)
 Number     Number       Type             X           Y           Z
 ---------------------------------------------------------------------
      1          6           0       -1.404366   -0.132889    0.020401
      2          1           0       -2.105125    0.091637    0.838543
      3          1           0       -2.011509   -0.765512   -0.654437
      4          6           0       -0.098370    0.293602   -0.093517
      5          6           0        1.340603   -0.150191    0.035570
      6          1           0        1.664116   -0.960045   -0.644522
      7          1           0        1.492993   -0.522037    1.056150
      8          1           0       -0.078455    1.395966   -0.248927
      9          1           0        2.010776    0.696863   -0.121526
 ---------------------------------------------------------------------
 Rotational constants (GHZ):     58.3866574      7.6734934      7.3479059
 Standard basis: 6-31G(d) (6D, 7F)
 There are    57 symmetry adapted cartesian basis functions of A   symmetry.
 There are    57 symmetry adapted basis functions of A   symmetry.
    57 basis functions,   108 primitive gaussians,    57 cartesian basis functions
    12 alpha electrons       12 beta electrons
       nuclear repulsion energy        68.6312864689 Hartrees.
 NAtoms=    9 NActive=    9 NUniq=    9 SFac= 1.00D+00 NAtFMM=   60 NAOKFM=F Big=F
 Integral buffers will be    131072 words long.
 Raffenetti 2 integral format.
 Two-electron integral symmetry is turned on.
 One-electron integrals computed using PRISM.
 NBasis=    57 RedAO= T EigKep=  6.13D-03  NBF=    57
 NBsUse=    57 1.00D-06 EigRej= -1.00D+00 NBFU=    57
 Initial guess from the checkpoint file:  "C:\Work\Gau-12016.chk"
 B after Tr=     0.000000    0.000000    0.000000
         Rot=    0.990424    0.137920    0.005745    0.002185 Ang=  15.87 deg.
 ExpMin= 1.61D-01 ExpMax= 3.05D+03 ExpMxC= 4.57D+02 IAcc=1 IRadAn=         1 AccDes= 0.00D+00
 Harris functional with IExCor=  402 and IRadAn=       1 diagonalized for initial guess.
 HarFok:  IExCor=  402 AccDes= 0.00D+00 IRadAn=         1 IDoV= 1 UseB2=F ITyADJ=14
 ICtDFT=  3500011 ScaDFX=  1.000000  1.000000  1.000000  1.000000
 FoFCou: FMM=F IPFlag=           0 FMFlag=      100000 FMFlg1=           0
         NFxFlg=           0 DoJE=T BraDBF=F KetDBF=T FulRan=T
         wScrn=  0.000000 ICntrl=     500 IOpCl=  0 I1Cent=   200000004 NGrid=           0
         NMat0=    1 NMatS0=      1 NMatT0=    0 NMatD0=    1 NMtDS0=    0 NMtDT0=    0
 Petite list used in FoFCou.
 Keep R1 ints in memory in canonical form, NReq=2273549.
 Requested convergence on RMS density matrix=1.00D-08 within 128 cycles.
 Requested convergence on MAX density matrix=1.00D-06.
 Requested convergence on             energy=1.00D-06.
 No special actions if energy rises.
 Integral accuracy reduced to 1.0D-05 until final iterations.
 Initial convergence to 1.0D-05 achieved.  Increase integral accuracy.
 SCF Done:  E(RB3LYP) =  -117.798334055     A.U. after   13 cycles
            NFock= 13  Conv=0.38D-08     -V/T= 2.0107
 Calling FoFJK, ICntrl=      2127 FMM=F ISym2X=0 I1Cent= 0 IOpClX= 0 NMat=1 NMatS=1 NMatT=0.
 ***** Axes restored to original set *****
 -------------------------------------------------------------------
 Center     Atomic                   Forces (Hartrees/Bohr)
 Number     Number              X              Y              Z
 -------------------------------------------------------------------
      1        6          -0.005604829   -0.035601143   -0.003355199
      2        1           0.005353686    0.035952370   -0.029971119
      3        1           0.021737197   -0.021189432    0.033269335
      4        6          -0.009724490    0.036892939   -0.018946717
      5        6           0.007415305   -0.036725155   -0.019840779
      6        1          -0.000170153    0.000340864    0.003241940
      7        1          -0.002254455    0.000693142   -0.000620150
      8        1          -0.015959331    0.019280022    0.036949817
      9        1          -0.000792929    0.000356392   -0.000727127
 -------------------------------------------------------------------
 Cartesian Forces:  Max     0.036949817 RMS     0.020348420

 GradGradGradGradGradGradGradGradGradGradGradGradGradGradGradGradGradGrad
 Berny optimization.
 Using GEDIIS/GDIIS optimizer.
 FormGI is forming the generalized inverse of G from B-inverse, IUseBI=4.
 Internal  Forces:  Max     0.039423525 RMS     0.015947270
 Search for a local minimum.
 Step number   2 out of a maximum of   40
 All quantities printed in internal units (Hartrees-Bohrs-Radians)
 Mixed Optimization -- RFO/linear search
 Update second derivatives using D2CorX and points    1    2
 DE= -7.67D-02 DEPred=-7.81D-02 R= 9.83D-01
 TightC=F SS=  1.41D+00  RLast= 7.43D-01 DXNew= 5.0454D-01 2.2296D+00
 Trust test= 9.83D-01 RLast= 7.43D-01 DXMaxT set to 5.05D-01
 ITU=  1  0
 Use linear search instead of GDIIS.
 Linear search step of   0.538 exceeds DXMaxT=   0.505 but not scaled.
 Quartic linear search produced a step of  1.79238.
 Iteration  1 RMS(Cart)=  0.15537310 RMS(Int)=  0.14839900
 Iteration  2 RMS(Cart)=  0.09397830 RMS(Int)=  0.07244162
 Iteration  3 RMS(Cart)=  0.07740921 RMS(Int)=  0.00856042
 Iteration  4 RMS(Cart)=  0.00640662 RMS(Int)=  0.00543093
 Iteration  5 RMS(Cart)=  0.00004810 RMS(Int)=  0.00543068
 Iteration  6 RMS(Cart)=  0.00000007 RMS(Int)=  0.00543068
 Variable       Old X    -DE/DX   Delta X   Delta X   Delta X     New X
                                 (Linear)    (Quad)   (Total)
    R1        2.07941  -0.00231   0.04633   0.00000   0.04633   2.12574
    R2        2.09090  -0.00382   0.05930   0.00000   0.05930   2.15020
    R3        2.60515  -0.01100   0.15294   0.00000   0.15294   2.75809
    R4        2.85609  -0.00239  -0.00485   0.00000  -0.00485   2.85124
    R5        2.10410  -0.00326   0.07908   0.00000   0.07908   2.18319
    R6        2.08988  -0.00082   0.03048   0.00000   0.03048   2.12035
    R7        2.07274  -0.00013  -0.00051   0.00000  -0.00051   2.07223
    R8        2.06258  -0.00003  -0.00937   0.00000  -0.00937   2.05321
    A1        1.79332   0.02404   0.22647   0.00000   0.22647   2.01979
    A2        2.21632  -0.01501  -0.16035   0.00000  -0.16036   2.05596
    A3        2.27355  -0.00904  -0.06612   0.00000  -0.06612   2.20743
    A4        2.50489  -0.03285  -0.28750   0.00000  -0.30159   2.20330
    A5        1.91215   0.01466   0.15398   0.00000   0.13802   2.05017
    A6        1.86044   0.01735   0.12329   0.00000   0.10949   1.96992
    A7        2.02753   0.00423   0.14588   0.00000   0.14701   2.17454
    A8        1.88735  -0.00439  -0.10466   0.00000  -0.10391   1.78344
    A9        1.92242  -0.00142  -0.04275   0.00000  -0.04685   1.87557
   A10        1.85803  -0.00028  -0.02137   0.00000  -0.01593   1.84209
   A11        1.87568   0.00036  -0.00083   0.00000  -0.00312   1.87256
   A12        1.88779   0.00149   0.02171   0.00000   0.01456   1.90235
    D1        1.82407   0.03226   0.45573   0.00000   0.45409   2.27816
    D2       -1.17780   0.03942   0.70501   0.00000   0.70665  -0.47115
    D3       -1.31899   0.02991   0.45260   0.00000   0.45096  -0.86803
    D4        1.96232   0.03707   0.70188   0.00000   0.70352   2.66585
    D5        1.07636   0.00146   0.08119   0.00000   0.07573   1.15209
    D6       -1.01011   0.00234   0.08607   0.00000   0.08855  -0.92156
    D7       -3.06970   0.00395   0.15235   0.00000   0.14719  -2.92251
    D8       -2.20260  -0.00558  -0.16388   0.00000  -0.16392  -2.36651
    D9        1.99412  -0.00469  -0.15900   0.00000  -0.15110   1.84302
   D10       -0.06547  -0.00309  -0.09273   0.00000  -0.09246  -0.15794
         Item               Value     Threshold  Converged?
 Maximum Force            0.039424     0.000450     NO 
 RMS     Force            0.015947     0.000300     NO 
 Maximum Displacement     0.822470     0.001800     NO 
 RMS     Displacement     0.273105     0.001200     NO 
 Predicted change in Energy=-4.939864D-02
 GradGradGradGradGradGradGradGradGradGradGradGradGradGradGradGradGradGrad

                          Input orientation:                          
 ---------------------------------------------------------------------
 Center     Atomic      Atomic             Coordinates (Angstroms)
 Number     Number       Type             X           Y           Z
 ---------------------------------------------------------------------
      1          6           0       -1.343988   -0.060666   -0.187987
      2          1           0       -2.290105    0.529809   -0.041064
      3          1           0       -1.476330   -1.184860   -0.303485
      4          6           0       -0.082075    0.672048   -0.217905
      5          6           0        1.160360    0.341226    0.571664
      6          1           0        1.779166   -0.583619    0.427718
      7          1           0        0.774022    0.279808    1.596093
      8          1           0       -0.113622    1.773626   -0.564652
      9          1           0        1.830619    1.193094    0.496927
 ---------------------------------------------------------------------
                    Distance matrix (angstroms):
                    1          2          3          4          5
     1  C    0.000000
     2  H    1.124893   0.000000
     3  H    1.137835   1.916034   0.000000
     4  C    1.459517   2.219663   2.323657   0.000000
     5  C    2.647705   3.509517   3.169694   1.508809   0.000000
     6  H    3.225936   4.244814   3.390340   2.336182   1.122043
     7  H    2.790131   3.483053   3.289033   2.043855   1.096578
     8  H    2.240603   2.560918   3.267693   1.155293   2.228455
     9  H    3.481257   4.208295   4.151053   2.107338   1.086513
                    6          7          8          9
     6  H    0.000000
     7  H    1.766613   0.000000
     8  H    3.181831   2.772765   0.000000
     9  H    1.778805   1.777260   2.289987   0.000000
 Stoichiometry    C3H6
 Framework group  C1[X(C3H6)]
 Deg. of freedom    21
 Full point group                 C1      NOp   1
 Largest Abelian subgroup         C1      NOp   1
 Largest concise Abelian subgroup C1      NOp   1
                         Standard orientation:                         
 ---------------------------------------------------------------------
 Center     Atomic      Atomic             Coordinates (Angstroms)
 Number     Number       Type             X           Y           Z
 ---------------------------------------------------------------------
      1          6           0       -1.371008   -0.201405    0.016004
      2          1           0       -2.142523    0.337097    0.632580
      3          1           0       -1.692210   -1.206920   -0.408773
      4          6           0       -0.074778    0.443844   -0.167382
      5          6           0        1.276529   -0.192992    0.044541
      6          1           0        1.689524   -1.032155   -0.575316
      7          1           0        1.186025   -0.595189    1.060676
      8          1           0       -0.041155    1.597319   -0.111995
      9          1           0        2.015884    0.603164    0.043850
 ---------------------------------------------------------------------
 Rotational constants (GHZ):     43.3696724      8.3634675      7.5045376
 Standard basis: 6-31G(d) (6D, 7F)
 There are    57 symmetry adapted cartesian basis functions of A   symmetry.
 There are    57 symmetry adapted basis functions of A   symmetry.
    57 basis functions,   108 primitive gaussians,    57 cartesian basis functions
    12 alpha electrons       12 beta electrons
       nuclear repulsion energy        67.8554484771 Hartrees.
 NAtoms=    9 NActive=    9 NUniq=    9 SFac= 1.00D+00 NAtFMM=   60 NAOKFM=F Big=F
 Integral buffers will be    131072 words long.
 Raffenetti 2 integral format.
 Two-electron integral symmetry is turned on.
 One-electron integrals computed using PRISM.
 NBasis=    57 RedAO= T EigKep=  7.71D-03  NBF=    57
 NBsUse=    57 1.00D-06 EigRej= -1.00D+00 NBFU=    57
 Initial guess from the checkpoint file:  "C:\Work\Gau-12016.chk"
 B after Tr=     0.000000    0.000000    0.000000
         Rot=    0.999579    0.025354    0.014094   -0.000727 Ang=   3.33 deg.
 ExpMin= 1.61D-01 ExpMax= 3.05D+03 ExpMxC= 4.57D+02 IAcc=1 IRadAn=         1 AccDes= 0.00D+00
 Harris functional with IExCor=  402 and IRadAn=       1 diagonalized for initial guess.
 HarFok:  IExCor=  402 AccDes= 0.00D+00 IRadAn=         1 IDoV= 1 UseB2=F ITyADJ=14
 ICtDFT=  3500011 ScaDFX=  1.000000  1.000000  1.000000  1.000000
 FoFCou: FMM=F IPFlag=           0 FMFlag=      100000 FMFlg1=           0
         NFxFlg=           0 DoJE=T BraDBF=F KetDBF=T FulRan=T
         wScrn=  0.000000 ICntrl=     500 IOpCl=  0 I1Cent=   200000004 NGrid=           0
         NMat0=    1 NMatS0=      1 NMatT0=    0 NMatD0=    1 NMtDS0=    0 NMtDT0=    0
 Petite list used in FoFCou.
 Keep R1 ints in memory in canonical form, NReq=2273549.
 Requested convergence on RMS density matrix=1.00D-08 within 128 cycles.
 Requested convergence on MAX density matrix=1.00D-06.
 Requested convergence on             energy=1.00D-06.
 No special actions if energy rises.
 Integral accuracy reduced to 1.0D-05 until final iterations.
 Initial convergence to 1.0D-05 achieved.  Increase integral accuracy.
 SCF Done:  E(RB3LYP) =  -117.852682017     A.U. after   13 cycles
            NFock= 13  Conv=0.73D-08     -V/T= 2.0141
 Calling FoFJK, ICntrl=      2127 FMM=F ISym2X=0 I1Cent= 0 IOpClX= 0 NMat=1 NMatS=1 NMatT=0.
 ***** Axes restored to original set *****
 -------------------------------------------------------------------
 Center     Atomic                   Forces (Hartrees/Bohr)
 Number     Number              X              Y              Z
 -------------------------------------------------------------------
      1        6           0.052567851    0.033808809   -0.007817066
      2        1           0.016567031   -0.010747171   -0.023641566
      3        1           0.010954289    0.027832592    0.019492520
      4        6          -0.081510874   -0.017923580   -0.003053069
      5        6           0.007475097   -0.013321157   -0.003408297
      6        1          -0.014626718    0.008598278   -0.007609756
      7        1           0.008940996    0.001507251    0.002856240
      8        1          -0.006840788   -0.031339057    0.020596166
      9        1           0.006473116    0.001584034    0.002584827
 -------------------------------------------------------------------
 Cartesian Forces:  Max     0.081510874 RMS     0.023844359

 GradGradGradGradGradGradGradGradGradGradGradGradGradGradGradGradGradGrad
 Berny optimization.
 Using GEDIIS/GDIIS optimizer.
 FormGI is forming the generalized inverse of G from B-inverse, IUseBI=4.
 Internal  Forces:  Max     0.095042617 RMS     0.022133091
 Search for a local minimum.
 Step number   3 out of a maximum of   40
 All quantities printed in internal units (Hartrees-Bohrs-Radians)
 Mixed Optimization -- RFO/linear search
 Update second derivatives using D2CorX and points    2    3
 ITU=  0  1  0
 Use linear search instead of GDIIS.
     Eigenvalues ---    0.00597   0.01832   0.02932   0.03204   0.05692
     Eigenvalues ---    0.08028   0.13930   0.15453   0.16000   0.16000
     Eigenvalues ---    0.16000   0.16775   0.19843   0.31101   0.34016
     Eigenvalues ---    0.34064   0.34333   0.34860   0.35117   0.35910
     Eigenvalues ---    0.58500
 RFO step:  Lambda=-4.69822644D-02 EMin= 5.96540380D-03
 Quartic linear search produced a step of  0.06406.
 Iteration  1 RMS(Cart)=  0.11860621 RMS(Int)=  0.02561746
 Iteration  2 RMS(Cart)=  0.02886239 RMS(Int)=  0.00148946
 Iteration  3 RMS(Cart)=  0.00089035 RMS(Int)=  0.00116538
 Iteration  4 RMS(Cart)=  0.00000061 RMS(Int)=  0.00116538
 Variable       Old X    -DE/DX   Delta X   Delta X   Delta X     New X
                                 (Linear)    (Quad)   (Total)
    R1        2.12574  -0.02266   0.00297  -0.05700  -0.05404   2.07170
    R2        2.15020  -0.03075   0.00380  -0.07755  -0.07375   2.07644
    R3        2.75809  -0.09504   0.00980  -0.15546  -0.14566   2.61243
    R4        2.85124   0.00424  -0.00031   0.01043   0.01012   2.86136
    R5        2.18319  -0.03588   0.00507  -0.09164  -0.08658   2.09661
    R6        2.12035  -0.01418   0.00195  -0.03662  -0.03467   2.08568
    R7        2.07223  -0.00057  -0.00003  -0.00128  -0.00131   2.07092
    R8        2.05321   0.00506  -0.00060   0.01270   0.01210   2.06531
    A1        2.01979   0.00331   0.01451   0.00251   0.01655   2.03634
    A2        2.05596   0.00609  -0.01027   0.03553   0.02479   2.08075
    A3        2.20743  -0.00942  -0.00424  -0.03825  -0.04296   2.16447
    A4        2.20330   0.00988  -0.01932   0.05722   0.03651   2.23980
    A5        2.05017  -0.01143   0.00884  -0.05125  -0.04414   2.00604
    A6        1.96992   0.00387   0.00701   0.01989   0.02574   1.99567
    A7        2.17454  -0.02321   0.00942  -0.11648  -0.10620   2.06834
    A8        1.78344   0.01635  -0.00666   0.08481   0.07829   1.86172
    A9        1.87557   0.01019  -0.00300   0.04517   0.04067   1.91623
   A10        1.84209   0.00102  -0.00102   0.00968   0.01097   1.85307
   A11        1.87256   0.00290  -0.00020   0.00522   0.00452   1.87708
   A12        1.90235  -0.00665   0.00093  -0.02173  -0.02352   1.87883
    D1        2.27816   0.02343   0.02909   0.29115   0.31941   2.59757
    D2       -0.47115   0.01574   0.04527   0.20765   0.25373  -0.21742
    D3       -0.86803   0.01866   0.02889   0.23249   0.26058  -0.60746
    D4        2.66585   0.01097   0.04507   0.14900   0.19489   2.86074
    D5        1.15209  -0.00063   0.00485  -0.02683  -0.02371   1.12838
    D6       -0.92156  -0.00231   0.00567  -0.04400  -0.03696  -0.95851
    D7       -2.92251  -0.00606   0.00943  -0.07476  -0.06697  -2.98949
    D8       -2.36651   0.00373  -0.01050   0.03920   0.02831  -2.33821
    D9        1.84302   0.00205  -0.00968   0.02204   0.01506   1.85808
   D10       -0.15794  -0.00170  -0.00592  -0.00873  -0.01495  -0.17289
         Item               Value     Threshold  Converged?
 Maximum Force            0.095043     0.000450     NO 
 RMS     Force            0.022133     0.000300     NO 
 Maximum Displacement     0.485408     0.001800     NO 
 RMS     Displacement     0.141693     0.001200     NO 
 Predicted change in Energy=-3.034447D-02
 GradGradGradGradGradGradGradGradGradGradGradGradGradGradGradGradGradGrad

                          Input orientation:                          
 ---------------------------------------------------------------------
 Center     Atomic      Atomic             Coordinates (Angstroms)
 Number     Number       Type             X           Y           Z
 ---------------------------------------------------------------------
      1          6           0       -1.323211   -0.024238   -0.175821
      2          1           0       -2.264445    0.524430   -0.297930
      3          1           0       -1.393423   -1.119787   -0.128720
      4          6           0       -0.131103    0.675624   -0.161537
      5          6           0        1.144932    0.341918    0.582151
      6          1           0        1.689432   -0.578016    0.307585
      7          1           0        0.873768    0.232418    1.638299
      8          1           0       -0.204987    1.732233   -0.491785
      9          1           0        1.847086    1.175883    0.505068
 ---------------------------------------------------------------------
                    Distance matrix (angstroms):
                    1          2          3          4          5
     1  C    0.000000
     2  H    1.096298   0.000000
     3  H    1.098807   1.868359   0.000000
     4  C    1.382437   2.143038   2.195001   0.000000
     5  C    2.607742   3.525862   3.014161   1.514166   0.000000
     6  H    3.101027   4.149118   3.160359   2.259654   1.103696
     7  H    2.860702   3.699004   3.176628   2.108461   1.095886
     8  H    2.106051   2.395356   3.110983   1.109479   2.215536
     9  H    3.457555   4.239562   4.021529   2.146592   1.092914
                    6          7          8          9
     6  H    0.000000
     7  H    1.758667   0.000000
     8  H    3.092744   2.819648   0.000000
     9  H    1.772010   1.766830   2.348244   0.000000
 Stoichiometry    C3H6
 Framework group  C1[X(C3H6)]
 Deg. of freedom    21
 Full point group                 C1      NOp   1
 Largest Abelian subgroup         C1      NOp   1
 Largest concise Abelian subgroup C1      NOp   1
                         Standard orientation:                         
 ---------------------------------------------------------------------
 Center     Atomic      Atomic             Coordinates (Angstroms)
 Number     Number       Type             X           Y           Z
 ---------------------------------------------------------------------
      1          6           0       -1.334430   -0.211156    0.021487
      2          1           0       -2.195960    0.362272    0.383171
      3          1           0       -1.520612   -1.257212   -0.258655
      4          6           0       -0.114575    0.422918   -0.123550
      5          6           0        1.272847   -0.163119    0.032395
      6          1           0        1.596659   -0.945801   -0.675208
      7          1           0        1.312013   -0.617404    1.028917
      8          1           0       -0.152789    1.530102   -0.063321
      9          1           0        2.017637    0.636187    0.003105
 ---------------------------------------------------------------------
 Rotational constants (GHZ):     47.1471785      8.6410042      7.7323230
 Standard basis: 6-31G(d) (6D, 7F)
 There are    57 symmetry adapted cartesian basis functions of A   symmetry.
 There are    57 symmetry adapted basis functions of A   symmetry.
    57 basis functions,   108 primitive gaussians,    57 cartesian basis functions
    12 alpha electrons       12 beta electrons
       nuclear repulsion energy        69.2769042768 Hartrees.
 NAtoms=    9 NActive=    9 NUniq=    9 SFac= 1.00D+00 NAtFMM=   60 NAOKFM=F Big=F
 Integral buffers will be    131072 words long.
 Raffenetti 2 integral format.
 Two-electron integral symmetry is turned on.
 One-electron integrals computed using PRISM.
 NBasis=    57 RedAO= T EigKep=  6.83D-03  NBF=    57
 NBsUse=    57 1.00D-06 EigRej= -1.00D+00 NBFU=    57
 Initial guess from the checkpoint file:  "C:\Work\Gau-12016.chk"
 B after Tr=     0.000000    0.000000    0.000000
         Rot=    0.999916   -0.001789   -0.003997   -0.012176 Ang=  -1.48 deg.
 ExpMin= 1.61D-01 ExpMax= 3.05D+03 ExpMxC= 4.57D+02 IAcc=1 IRadAn=         1 AccDes= 0.00D+00
 Harris functional with IExCor=  402 and IRadAn=       1 diagonalized for initial guess.
 HarFok:  IExCor=  402 AccDes= 0.00D+00 IRadAn=         1 IDoV= 1 UseB2=F ITyADJ=14
 ICtDFT=  3500011 ScaDFX=  1.000000  1.000000  1.000000  1.000000
 FoFCou: FMM=F IPFlag=           0 FMFlag=      100000 FMFlg1=           0
         NFxFlg=           0 DoJE=T BraDBF=F KetDBF=T FulRan=T
         wScrn=  0.000000 ICntrl=     500 IOpCl=  0 I1Cent=   200000004 NGrid=           0
         NMat0=    1 NMatS0=      1 NMatT0=    0 NMatD0=    1 NMtDS0=    0 NMtDT0=    0
 Petite list used in FoFCou.
 Keep R1 ints in memory in canonical form, NReq=2273549.
 Requested convergence on RMS density matrix=1.00D-08 within 128 cycles.
 Requested convergence on MAX density matrix=1.00D-06.
 Requested convergence on             energy=1.00D-06.
 No special actions if energy rises.
 Integral accuracy reduced to 1.0D-05 until final iterations.
 Initial convergence to 1.0D-05 achieved.  Increase integral accuracy.
 SCF Done:  E(RB3LYP) =  -117.888049744     A.U. after   12 cycles
            NFock= 12  Conv=0.78D-08     -V/T= 2.0119
 Calling FoFJK, ICntrl=      2127 FMM=F ISym2X=0 I1Cent= 0 IOpClX= 0 NMat=1 NMatS=1 NMatT=0.
 ***** Axes restored to original set *****
 -------------------------------------------------------------------
 Center     Atomic                   Forces (Hartrees/Bohr)
 Number     Number              X              Y              Z
 -------------------------------------------------------------------
      1        6           0.034802608    0.015754640   -0.007706921
      2        1           0.005717353   -0.005419981   -0.012292211
      3        1           0.001466655    0.007634939    0.012929775
      4        6          -0.043409571   -0.004223981    0.006456979
      5        6           0.002387746   -0.006949385   -0.006146514
      6        1          -0.005768145    0.002121235   -0.003630218
      7        1           0.003028182    0.000529991    0.001154622
      8        1          -0.000086956   -0.008811938    0.009509864
      9        1           0.001862128   -0.000635520   -0.000275377
 -------------------------------------------------------------------
 Cartesian Forces:  Max     0.043409571 RMS     0.012515307

 GradGradGradGradGradGradGradGradGradGradGradGradGradGradGradGradGradGrad
 Berny optimization.
 Using GEDIIS/GDIIS optimizer.
 FormGI is forming the generalized inverse of G from B-inverse, IUseBI=4.
 Internal  Forces:  Max     0.045229853 RMS     0.010169400
 Search for a local minimum.
 Step number   4 out of a maximum of   40
 All quantities printed in internal units (Hartrees-Bohrs-Radians)
 Mixed Optimization -- RFO/linear search
 Update second derivatives using D2CorX and points    3    4
 DE= -3.54D-02 DEPred=-3.03D-02 R= 1.17D+00
 TightC=F SS=  1.41D+00  RLast= 5.87D-01 DXNew= 8.4853D-01 1.7619D+00
 Trust test= 1.17D+00 RLast= 5.87D-01 DXMaxT set to 8.49D-01
 ITU=  1  0  1  0
 Use linear search instead of GDIIS.
     Eigenvalues ---    0.00597   0.01653   0.02982   0.03093   0.06335
     Eigenvalues ---    0.07603   0.13913   0.15614   0.15877   0.16000
     Eigenvalues ---    0.16001   0.16587   0.20619   0.30948   0.33887
     Eigenvalues ---    0.34057   0.34142   0.34395   0.35130   0.35319
     Eigenvalues ---    0.46475
 RFO step:  Lambda=-6.48547642D-03 EMin= 5.97034278D-03
 Quartic linear search produced a step of  0.79004.
 Iteration  1 RMS(Cart)=  0.12046390 RMS(Int)=  0.05675062
 Iteration  2 RMS(Cart)=  0.06123876 RMS(Int)=  0.00420433
 Iteration  3 RMS(Cart)=  0.00387884 RMS(Int)=  0.00262946
 Iteration  4 RMS(Cart)=  0.00001521 RMS(Int)=  0.00262944
 Iteration  5 RMS(Cart)=  0.00000000 RMS(Int)=  0.00262944
 Variable       Old X    -DE/DX   Delta X   Delta X   Delta X     New X
                                 (Linear)    (Quad)   (Total)
    R1        2.07170  -0.00625  -0.04269   0.01772  -0.02497   2.04673
    R2        2.07644  -0.00715  -0.05827   0.03044  -0.02783   2.04862
    R3        2.61243  -0.04523  -0.11508  -0.00846  -0.12354   2.48889
    R4        2.86136  -0.00201   0.00800  -0.01980  -0.01180   2.84956
    R5        2.09661  -0.01122  -0.06840   0.02246  -0.04594   2.05068
    R6        2.08568  -0.00371  -0.02739   0.01241  -0.01498   2.07070
    R7        2.07092   0.00031  -0.00103   0.00260   0.00157   2.07249
    R8        2.06531   0.00073   0.00956  -0.00706   0.00249   2.06780
    A1        2.03634   0.00026   0.01307   0.00693   0.01939   2.05573
    A2        2.08075   0.00262   0.01958  -0.00883   0.01014   2.09089
    A3        2.16447  -0.00291  -0.03394   0.00647  -0.02808   2.13639
    A4        2.23980  -0.00230   0.02884  -0.06183  -0.04044   2.19937
    A5        2.00604   0.00121  -0.03487   0.08710   0.04474   2.05077
    A6        1.99567   0.00229   0.02034   0.02125   0.03415   2.02982
    A7        2.06834  -0.01078  -0.08390  -0.00466  -0.08771   1.98063
    A8        1.86172   0.00640   0.06185  -0.00879   0.05304   1.91476
    A9        1.91623   0.00326   0.03213  -0.01179   0.01825   1.93449
   A10        1.85307   0.00166   0.00867   0.00755   0.01895   1.87202
   A11        1.87708   0.00185   0.00357   0.00146   0.00401   1.88109
   A12        1.87883  -0.00194  -0.01858   0.01974  -0.00185   1.87698
    D1        2.59757   0.01444   0.25235   0.16741   0.41965   3.01721
    D2       -0.21742   0.00934   0.20045  -0.01773   0.18283  -0.03460
    D3       -0.60746   0.01390   0.20587   0.25654   0.46231  -0.14515
    D4        2.86074   0.00880   0.15397   0.07140   0.22549   3.08623
    D5        1.12838  -0.00197  -0.01873  -0.11209  -0.13253   0.99585
    D6       -0.95851  -0.00219  -0.02920  -0.11197  -0.13913  -1.09764
    D7       -2.98949  -0.00510  -0.05291  -0.12439  -0.17838   3.11532
    D8       -2.33821   0.00294   0.02236   0.08248   0.10363  -2.23458
    D9        1.85808   0.00272   0.01190   0.08260   0.09704   1.95512
   D10       -0.17289  -0.00019  -0.01181   0.07018   0.05779  -0.11511
         Item               Value     Threshold  Converged?
 Maximum Force            0.045230     0.000450     NO 
 RMS     Force            0.010169     0.000300     NO 
 Maximum Displacement     0.500602     0.001800     NO 
 RMS     Displacement     0.169014     0.001200     NO 
 Predicted change in Energy=-1.744414D-02
 GradGradGradGradGradGradGradGradGradGradGradGradGradGradGradGradGradGrad

                          Input orientation:                          
 ---------------------------------------------------------------------
 Center     Atomic      Atomic             Coordinates (Angstroms)
 Number     Number       Type             X           Y           Z
 ---------------------------------------------------------------------
      1          6           0       -1.274970    0.003636   -0.170616
      2          1           0       -2.187678    0.435139   -0.562838
      3          1           0       -1.291785   -1.042554    0.112997
      4          6           0       -0.189726    0.743668   -0.074442
      5          6           0        1.104499    0.338060    0.584568
      6          1           0        1.540018   -0.576038    0.165690
      7          1           0        0.934857    0.157699    1.652968
      8          1           0       -0.248146    1.767330   -0.429830
      9          1           0        1.850979    1.133524    0.498813
 ---------------------------------------------------------------------
                    Distance matrix (angstroms):
                    1          2          3          4          5
     1  C    0.000000
     2  H    1.083083   0.000000
     3  H    1.084081   1.855520   0.000000
     4  C    1.317062   2.079792   2.107192   0.000000
     5  C    2.518733   3.487749   2.805469   1.507922   0.000000
     6  H    2.893662   3.930515   2.870457   2.188904   1.095769
     7  H    2.869239   3.838879   2.961428   2.142893   1.096717
     8  H    2.057225   2.356736   3.046193   1.085172   2.213925
     9  H    3.390625   4.233862   3.842022   2.155245   1.094234
                    6          7          8          9
     6  H    0.000000
     7  H    1.765386   0.000000
     8  H    3.007250   2.885907   0.000000
     9  H    1.769256   1.767367   2.381263   0.000000
 Stoichiometry    C3H6
 Framework group  C1[X(C3H6)]
 Deg. of freedom    21
 Full point group                 C1      NOp   1
 Largest Abelian subgroup         C1      NOp   1
 Largest concise Abelian subgroup C1      NOp   1
                         Standard orientation:                         
 ---------------------------------------------------------------------
 Center     Atomic      Atomic             Coordinates (Angstroms)
 Number     Number       Type             X           Y           Z
 ---------------------------------------------------------------------
      1          6           0       -1.277500   -0.225331    0.005545
      2          1           0       -2.215834    0.309272    0.087993
      3          1           0       -1.316194   -1.306604   -0.062162
      4          6           0       -0.143892    0.444127   -0.032020
      5          6           0        1.240194   -0.153033    0.007158
      6          1           0        1.426053   -0.877325   -0.793821
      7          1           0        1.390767   -0.675446    0.959629
      8          1           0       -0.200858    1.527595   -0.010832
      9          1           0        2.003250    0.627929   -0.064902
 ---------------------------------------------------------------------
 Rotational constants (GHZ):     47.4690979      9.2505938      8.1385767
 Standard basis: 6-31G(d) (6D, 7F)
 There are    57 symmetry adapted cartesian basis functions of A   symmetry.
 There are    57 symmetry adapted basis functions of A   symmetry.
    57 basis functions,   108 primitive gaussians,    57 cartesian basis functions
    12 alpha electrons       12 beta electrons
       nuclear repulsion energy        70.8018774418 Hartrees.
 NAtoms=    9 NActive=    9 NUniq=    9 SFac= 1.00D+00 NAtFMM=   60 NAOKFM=F Big=F
 Integral buffers will be    131072 words long.
 Raffenetti 2 integral format.
 Two-electron integral symmetry is turned on.
 One-electron integrals computed using PRISM.
 NBasis=    57 RedAO= T EigKep=  5.44D-03  NBF=    57
 NBsUse=    57 1.00D-06 EigRej= -1.00D+00 NBFU=    57
 Initial guess from the checkpoint file:  "C:\Work\Gau-12016.chk"
 B after Tr=     0.000000    0.000000    0.000000
         Rot=    0.999856   -0.013694   -0.005020   -0.008687 Ang=  -1.95 deg.
 ExpMin= 1.61D-01 ExpMax= 3.05D+03 ExpMxC= 4.57D+02 IAcc=1 IRadAn=         1 AccDes= 0.00D+00
 Harris functional with IExCor=  402 and IRadAn=       1 diagonalized for initial guess.
 HarFok:  IExCor=  402 AccDes= 0.00D+00 IRadAn=         1 IDoV= 1 UseB2=F ITyADJ=14
 ICtDFT=  3500011 ScaDFX=  1.000000  1.000000  1.000000  1.000000
 FoFCou: FMM=F IPFlag=           0 FMFlag=      100000 FMFlg1=           0
         NFxFlg=           0 DoJE=T BraDBF=F KetDBF=T FulRan=T
         wScrn=  0.000000 ICntrl=     500 IOpCl=  0 I1Cent=   200000004 NGrid=           0
         NMat0=    1 NMatS0=      1 NMatT0=    0 NMatD0=    1 NMtDS0=    0 NMtDT0=    0
 Petite list used in FoFCou.
 Keep R1 ints in memory in canonical form, NReq=2273549.
 Requested convergence on RMS density matrix=1.00D-08 within 128 cycles.
 Requested convergence on MAX density matrix=1.00D-06.
 Requested convergence on             energy=1.00D-06.
 No special actions if energy rises.
 Integral accuracy reduced to 1.0D-05 until final iterations.
 Initial convergence to 1.0D-05 achieved.  Increase integral accuracy.
 SCF Done:  E(RB3LYP) =  -117.903008587     A.U. after   12 cycles
            NFock= 12  Conv=0.48D-08     -V/T= 2.0098
 Calling FoFJK, ICntrl=      2127 FMM=F ISym2X=0 I1Cent= 0 IOpClX= 0 NMat=1 NMatS=1 NMatT=0.
 ***** Axes restored to original set *****
 -------------------------------------------------------------------
 Center     Atomic                   Forces (Hartrees/Bohr)
 Number     Number              X              Y              Z
 -------------------------------------------------------------------
      1        6          -0.012248214   -0.008223016   -0.004720866
      2        1          -0.003207242   -0.002874568   -0.003186099
      3        1          -0.002155674   -0.002305485    0.003434800
      4        6           0.013474527    0.010130913    0.004754684
      5        6           0.001559138    0.000871423   -0.000266052
      6        1          -0.001041977   -0.000739448   -0.001050542
      7        1           0.001765730   -0.000165786    0.000551417
      8        1           0.000743777    0.004182929    0.000284600
      9        1           0.001109934   -0.000876960    0.000198058
 -------------------------------------------------------------------
 Cartesian Forces:  Max     0.013474527 RMS     0.004818204

 GradGradGradGradGradGradGradGradGradGradGradGradGradGradGradGradGradGrad
 Berny optimization.
 Using GEDIIS/GDIIS optimizer.
 FormGI is forming the generalized inverse of G from B-inverse, IUseBI=4.
 Internal  Forces:  Max     0.022367357 RMS     0.004613354
 Search for a local minimum.
 Step number   5 out of a maximum of   40
 All quantities printed in internal units (Hartrees-Bohrs-Radians)
 Mixed Optimization -- RFO/linear search
 Update second derivatives using D2CorX and points    4    5
 DE= -1.50D-02 DEPred=-1.74D-02 R= 8.58D-01
 TightC=F SS=  1.41D+00  RLast= 7.76D-01 DXNew= 1.4270D+00 2.3291D+00
 Trust test= 8.58D-01 RLast= 7.76D-01 DXMaxT set to 1.43D+00
 ITU=  1  1  0  1  0
 Use linear search instead of GDIIS.
     Eigenvalues ---    0.00597   0.01652   0.02991   0.03331   0.06885
     Eigenvalues ---    0.07275   0.13777   0.15465   0.15999   0.16000
     Eigenvalues ---    0.16047   0.16538   0.20529   0.31286   0.34002
     Eigenvalues ---    0.34067   0.34342   0.34751   0.35132   0.36454
     Eigenvalues ---    0.53615
 RFO step:  Lambda=-2.85567835D-03 EMin= 5.96862354D-03
 Quartic linear search produced a step of  0.06680.
 Iteration  1 RMS(Cart)=  0.05787680 RMS(Int)=  0.00277025
 Iteration  2 RMS(Cart)=  0.00312859 RMS(Int)=  0.00071282
 Iteration  3 RMS(Cart)=  0.00000723 RMS(Int)=  0.00071279
 Iteration  4 RMS(Cart)=  0.00000000 RMS(Int)=  0.00071279
 Variable       Old X    -DE/DX   Delta X   Delta X   Delta X     New X
                                 (Linear)    (Quad)   (Total)
    R1        2.04673   0.00271  -0.00167   0.01039   0.00872   2.05545
    R2        2.04862   0.00316  -0.00186   0.01206   0.01020   2.05882
    R3        2.48889   0.02237  -0.00825   0.05263   0.04437   2.53326
    R4        2.84956   0.00291  -0.00079   0.01124   0.01045   2.86001
    R5        2.05068   0.00381  -0.00307   0.01589   0.01282   2.06350
    R6        2.07070   0.00061  -0.00100   0.00324   0.00224   2.07295
    R7        2.07249   0.00029   0.00010   0.00069   0.00079   2.07329
    R8        2.06780   0.00010   0.00017   0.00017   0.00033   2.06814
    A1        2.05573  -0.00338   0.00130  -0.01063  -0.00935   2.04637
    A2        2.09089   0.00403   0.00068   0.01910   0.01976   2.11064
    A3        2.13639  -0.00064  -0.00188  -0.00848  -0.01037   2.12602
    A4        2.19937  -0.00149  -0.00270  -0.01754  -0.02241   2.17696
    A5        2.05077   0.00215   0.00299   0.02046   0.02127   2.07204
    A6        2.02982  -0.00055   0.00228   0.00403   0.00414   2.03396
    A7        1.98063  -0.00328  -0.00586  -0.01704  -0.02282   1.95781
    A8        1.91476   0.00291   0.00354   0.01782   0.02128   1.93604
    A9        1.93449   0.00200   0.00122   0.01223   0.01325   1.94774
   A10        1.87202  -0.00020   0.00127  -0.00394  -0.00249   1.86952
   A11        1.88109  -0.00004   0.00027  -0.00639  -0.00615   1.87493
   A12        1.87698  -0.00144  -0.00012  -0.00295  -0.00342   1.87356
    D1        3.01721   0.00329   0.02803   0.12122   0.14957  -3.11640
    D2       -0.03460   0.00175   0.01221   0.02433   0.03622   0.00162
    D3       -0.14515   0.00354   0.03088   0.12036   0.15157   0.00642
    D4        3.08623   0.00200   0.01506   0.02348   0.03822   3.12444
    D5        0.99585  -0.00099  -0.00885  -0.08253  -0.09123   0.90462
    D6       -1.09764  -0.00062  -0.00929  -0.07880  -0.08765  -1.18529
    D7        3.11532  -0.00190  -0.01192  -0.09390  -0.10571   3.00961
    D8       -2.23458   0.00066   0.00692   0.01409   0.02070  -2.21388
    D9        1.95512   0.00103   0.00648   0.01782   0.02428   1.97940
   D10       -0.11511  -0.00025   0.00386   0.00272   0.00622  -0.10888
         Item               Value     Threshold  Converged?
 Maximum Force            0.022367     0.000450     NO 
 RMS     Force            0.004613     0.000300     NO 
 Maximum Displacement     0.173209     0.001800     NO 
 RMS     Displacement     0.058175     0.001200     NO 
 Predicted change in Energy=-1.674889D-03
 GradGradGradGradGradGradGradGradGradGradGradGradGradGradGradGradGradGrad

                          Input orientation:                          
 ---------------------------------------------------------------------
 Center     Atomic      Atomic             Coordinates (Angstroms)
 Number     Number       Type             X           Y           Z
 ---------------------------------------------------------------------
      1          6           0       -1.282931    0.000892   -0.176215
      2          1           0       -2.185285    0.375185   -0.654496
      3          1           0       -1.289830   -1.035287    0.160319
      4          6           0       -0.204661    0.783973   -0.030704
      5          6           0        1.102879    0.343967    0.591605
      6          1           0        1.486212   -0.579397    0.140201
      7          1           0        0.981095    0.152268    1.664977
      8          1           0       -0.247742    1.810332   -0.400979
      9          1           0        1.878311    1.108532    0.482602
 ---------------------------------------------------------------------
                    Distance matrix (angstroms):
                    1          2          3          4          5
     1  C    0.000000
     2  H    1.087699   0.000000
     3  H    1.089480   1.858815   0.000000
     4  C    1.340544   2.116387   2.126920   0.000000
     5  C    2.529691   3.516499   2.795247   1.513451   0.000000
     6  H    2.846929   3.875907   2.813298   2.178769   1.096956
     7  H    2.922109   3.931362   2.971765   2.163424   1.097137
     8  H    2.096714   2.424456   3.081971   1.091958   2.227022
     9  H    3.413848   4.282942   3.838872   2.169698   1.094410
                    6          7          8          9
     6  H    0.000000
     7  H    1.765055   0.000000
     8  H    3.001712   2.920170   0.000000
     9  H    1.766376   1.765629   2.406936   0.000000
 Stoichiometry    C3H6
 Framework group  C1[X(C3H6)]
 Deg. of freedom    21
 Full point group                 C1      NOp   1
 Largest Abelian subgroup         C1      NOp   1
 Largest concise Abelian subgroup C1      NOp   1
                         Standard orientation:                         
 ---------------------------------------------------------------------
 Center     Atomic      Atomic             Coordinates (Angstroms)
 Number     Number       Type             X           Y           Z
 ---------------------------------------------------------------------
      1          6           0       -1.286769   -0.227907    0.001532
      2          1           0       -2.246569    0.283521   -0.016264
      3          1           0       -1.301902   -1.317280   -0.000942
      4          6           0       -0.137897    0.462846    0.004800
      5          6           0        1.241975   -0.158791   -0.002521
      6          1           0        1.360136   -0.895005   -0.807095
      7          1           0        1.442700   -0.678427    0.942675
      8          1           0       -0.181568    1.553840   -0.009233
      9          1           0        2.023357    0.596463   -0.132005
 ---------------------------------------------------------------------
 Rotational constants (GHZ):     46.1366281      9.1775650      8.0371861
 Standard basis: 6-31G(d) (6D, 7F)
 There are    57 symmetry adapted cartesian basis functions of A   symmetry.
 There are    57 symmetry adapted basis functions of A   symmetry.
    57 basis functions,   108 primitive gaussians,    57 cartesian basis functions
    12 alpha electrons       12 beta electrons
       nuclear repulsion energy        70.3013751510 Hartrees.
 NAtoms=    9 NActive=    9 NUniq=    9 SFac= 1.00D+00 NAtFMM=   60 NAOKFM=F Big=F
 Integral buffers will be    131072 words long.
 Raffenetti 2 integral format.
 Two-electron integral symmetry is turned on.
 One-electron integrals computed using PRISM.
 NBasis=    57 RedAO= T EigKep=  5.72D-03  NBF=    57
 NBsUse=    57 1.00D-06 EigRej= -1.00D+00 NBFU=    57
 Initial guess from the checkpoint file:  "C:\Work\Gau-12016.chk"
 B after Tr=     0.000000    0.000000    0.000000
         Rot=    0.999994    0.001317   -0.002754    0.001561 Ang=   0.39 deg.
 ExpMin= 1.61D-01 ExpMax= 3.05D+03 ExpMxC= 4.57D+02 IAcc=1 IRadAn=         1 AccDes= 0.00D+00
 Harris functional with IExCor=  402 and IRadAn=       1 diagonalized for initial guess.
 HarFok:  IExCor=  402 AccDes= 0.00D+00 IRadAn=         1 IDoV= 1 UseB2=F ITyADJ=14
 ICtDFT=  3500011 ScaDFX=  1.000000  1.000000  1.000000  1.000000
 FoFCou: FMM=F IPFlag=           0 FMFlag=      100000 FMFlg1=           0
         NFxFlg=           0 DoJE=T BraDBF=F KetDBF=T FulRan=T
         wScrn=  0.000000 ICntrl=     500 IOpCl=  0 I1Cent=   200000004 NGrid=           0
         NMat0=    1 NMatS0=      1 NMatT0=    0 NMatD0=    1 NMtDS0=    0 NMtDT0=    0
 Petite list used in FoFCou.
 Keep R1 ints in memory in canonical form, NReq=2273549.
 Requested convergence on RMS density matrix=1.00D-08 within 128 cycles.
 Requested convergence on MAX density matrix=1.00D-06.
 Requested convergence on             energy=1.00D-06.
 No special actions if energy rises.
 Integral accuracy reduced to 1.0D-05 until final iterations.
 Initial convergence to 1.0D-05 achieved.  Increase integral accuracy.
 SCF Done:  E(RB3LYP) =  -117.904215824     A.U. after   11 cycles
            NFock= 11  Conv=0.47D-08     -V/T= 2.0107
 Calling FoFJK, ICntrl=      2127 FMM=F ISym2X=0 I1Cent= 0 IOpClX= 0 NMat=1 NMatS=1 NMatT=0.
 ***** Axes restored to original set *****
 -------------------------------------------------------------------
 Center     Atomic                   Forces (Hartrees/Bohr)
 Number     Number              X              Y              Z
 -------------------------------------------------------------------
      1        6           0.006663926    0.006133638   -0.000613809
      2        1          -0.000273819   -0.001229758    0.001367098
      3        1          -0.000614005    0.000702684   -0.000411344
      4        6          -0.003819279   -0.005733075   -0.002909196
      5        6          -0.000755372    0.000938584    0.001055063
      6        1          -0.001235071    0.000051826   -0.000155961
      7        1           0.000780149    0.000146455    0.000514489
      8        1          -0.000625904   -0.001143320    0.001236843
      9        1          -0.000120625    0.000132966   -0.000083183
 -------------------------------------------------------------------
 Cartesian Forces:  Max     0.006663926 RMS     0.002365654

 GradGradGradGradGradGradGradGradGradGradGradGradGradGradGradGradGradGrad
 Berny optimization.
 Using GEDIIS/GDIIS optimizer.
 FormGI is forming the generalized inverse of G from B-inverse, IUseBI=4.
 Internal  Forces:  Max     0.007959632 RMS     0.001658367
 Search for a local minimum.
 Step number   6 out of a maximum of   40
 All quantities printed in internal units (Hartrees-Bohrs-Radians)
 Mixed Optimization -- RFO/linear search
 Update second derivatives using D2CorX and points    5    6
 DE= -1.21D-03 DEPred=-1.67D-03 R= 7.21D-01
 TightC=F SS=  1.41D+00  RLast= 2.86D-01 DXNew= 2.4000D+00 8.5667D-01
 Trust test= 7.21D-01 RLast= 2.86D-01 DXMaxT set to 1.43D+00
 ITU=  1  1  1  0  1  0
 Use linear search instead of GDIIS.
     Eigenvalues ---    0.00581   0.02066   0.02928   0.03474   0.06983
     Eigenvalues ---    0.07059   0.13269   0.15249   0.15977   0.16000
     Eigenvalues ---    0.16098   0.16414   0.20542   0.31381   0.34011
     Eigenvalues ---    0.34067   0.34345   0.34827   0.35132   0.36856
     Eigenvalues ---    0.60551
 RFO step:  Lambda=-2.67135979D-04 EMin= 5.80696901D-03
 Quartic linear search produced a step of -0.16704.
 Iteration  1 RMS(Cart)=  0.02038824 RMS(Int)=  0.00030754
 Iteration  2 RMS(Cart)=  0.00035458 RMS(Int)=  0.00006305
 Iteration  3 RMS(Cart)=  0.00000009 RMS(Int)=  0.00006305
 Variable       Old X    -DE/DX   Delta X   Delta X   Delta X     New X
                                 (Linear)    (Quad)   (Total)
    R1        2.05545  -0.00080  -0.00146  -0.00043  -0.00189   2.05356
    R2        2.05882  -0.00079  -0.00170  -0.00010  -0.00181   2.05701
    R3        2.53326  -0.00796  -0.00741  -0.00487  -0.01228   2.52098
    R4        2.86001  -0.00097  -0.00175  -0.00048  -0.00222   2.85779
    R5        2.06350  -0.00147  -0.00214  -0.00182  -0.00396   2.05954
    R6        2.07295  -0.00041  -0.00037  -0.00092  -0.00129   2.07165
    R7        2.07329   0.00039  -0.00013   0.00127   0.00113   2.07442
    R8        2.06814   0.00002  -0.00006   0.00016   0.00010   2.06824
    A1        2.04637  -0.00139   0.00156  -0.01518  -0.01375   2.03263
    A2        2.11064   0.00148  -0.00330   0.01632   0.01290   2.12354
    A3        2.12602  -0.00007   0.00173  -0.00066   0.00094   2.12697
    A4        2.17696   0.00085   0.00374   0.00271   0.00659   2.18355
    A5        2.07204  -0.00083  -0.00355  -0.00034  -0.00376   2.06828
    A6        2.03396  -0.00001  -0.00069  -0.00209  -0.00265   2.03131
    A7        1.95781  -0.00171   0.00381  -0.01824  -0.01443   1.94338
    A8        1.93604   0.00141  -0.00355   0.01460   0.01107   1.94711
    A9        1.94774  -0.00018  -0.00221   0.00300   0.00079   1.94852
   A10        1.86952   0.00013   0.00042   0.00041   0.00085   1.87037
   A11        1.87493   0.00082   0.00103   0.00249   0.00349   1.87842
   A12        1.87356  -0.00043   0.00057  -0.00211  -0.00151   1.87204
    D1       -3.11640  -0.00118  -0.02498  -0.01346  -0.03849   3.12829
    D2        0.00162  -0.00048  -0.00605   0.00114  -0.00486  -0.00324
    D3        0.00642  -0.00030  -0.02532   0.01715  -0.00821  -0.00180
    D4        3.12444   0.00040  -0.00638   0.03175   0.02541  -3.13333
    D5        0.90462   0.00013   0.01524  -0.03992  -0.02473   0.87988
    D6       -1.18529   0.00015   0.01464  -0.03822  -0.02360  -1.20890
    D7        3.00961  -0.00014   0.01766  -0.04738  -0.02973   2.97987
    D8       -2.21388  -0.00054  -0.00346  -0.05426  -0.05770  -2.27158
    D9        1.97940  -0.00052  -0.00406  -0.05255  -0.05658   1.92283
   D10       -0.10888  -0.00081  -0.00104  -0.06171  -0.06271  -0.17159
         Item               Value     Threshold  Converged?
 Maximum Force            0.007960     0.000450     NO 
 RMS     Force            0.001658     0.000300     NO 
 Maximum Displacement     0.044756     0.001800     NO 
 RMS     Displacement     0.020395     0.001200     NO 
 Predicted change in Energy=-1.862827D-04
 GradGradGradGradGradGradGradGradGradGradGradGradGradGradGradGradGradGrad

                          Input orientation:                          
 ---------------------------------------------------------------------
 Center     Atomic      Atomic             Coordinates (Angstroms)
 Number     Number       Type             X           Y           Z
 ---------------------------------------------------------------------
      1          6           0       -1.274807    0.000716   -0.191091
      2          1           0       -2.189784    0.374000   -0.643187
      3          1           0       -1.284582   -1.036871    0.137852
      4          6           0       -0.201958    0.778425   -0.036693
      5          6           0        1.102134    0.345902    0.595165
      6          1           0        1.467224   -0.589942    0.156172
      7          1           0        0.990887    0.175952    1.673946
      8          1           0       -0.255015    1.811747   -0.379082
      9          1           0        1.883948    1.100536    0.464227
 ---------------------------------------------------------------------
                    Distance matrix (angstroms):
                    1          2          3          4          5
     1  C    0.000000
     2  H    1.086699   0.000000
     3  H    1.088525   1.849316   0.000000
     4  C    1.334044   2.117273   2.120810   0.000000
     5  C    2.527291   3.517247   2.795998   1.512275   0.000000
     6  H    2.826341   3.865471   2.787923   2.166978   1.096271
     7  H    2.939803   3.940177   3.001380   2.170746   1.097737
     8  H    2.086899   2.424912   3.072760   1.089863   2.222546
     9  H    3.408340   4.283633   3.835963   2.169258   1.094464
                    6          7          8          9
     6  H    0.000000
     7  H    1.765539   0.000000
     8  H    3.003450   2.905688   0.000000
     9  H    1.768127   1.765172   2.406690   0.000000
 Stoichiometry    C3H6
 Framework group  C1[X(C3H6)]
 Deg. of freedom    21
 Full point group                 C1      NOp   1
 Largest Abelian subgroup         C1      NOp   1
 Largest concise Abelian subgroup C1      NOp   1
                         Standard orientation:                         
 ---------------------------------------------------------------------
 Center     Atomic      Atomic             Coordinates (Angstroms)
 Number     Number       Type             X           Y           Z
 ---------------------------------------------------------------------
      1          6           0       -1.284454   -0.224631   -0.000918
      2          1           0       -2.248301    0.277177    0.009211
      3          1           0       -1.304202   -1.312975    0.001060
      4          6           0       -0.138881    0.458987   -0.002625
      5          6           0        1.241950   -0.157676    0.000146
      6          1           0        1.341412   -0.917144   -0.784154
      7          1           0        1.462416   -0.649015    0.956706
      8          1           0       -0.183034    1.547939    0.003338
      9          1           0        2.020019    0.593940   -0.165779
 ---------------------------------------------------------------------
 Rotational constants (GHZ):     46.5630108      9.1878145      8.0578352
 Standard basis: 6-31G(d) (6D, 7F)
 There are    57 symmetry adapted cartesian basis functions of A   symmetry.
 There are    57 symmetry adapted basis functions of A   symmetry.
    57 basis functions,   108 primitive gaussians,    57 cartesian basis functions
    12 alpha electrons       12 beta electrons
       nuclear repulsion energy        70.4205632180 Hartrees.
 NAtoms=    9 NActive=    9 NUniq=    9 SFac= 1.00D+00 NAtFMM=   60 NAOKFM=F Big=F
 Integral buffers will be    131072 words long.
 Raffenetti 2 integral format.
 Two-electron integral symmetry is turned on.
 One-electron integrals computed using PRISM.
 NBasis=    57 RedAO= T EigKep=  5.61D-03  NBF=    57
 NBsUse=    57 1.00D-06 EigRej= -1.00D+00 NBFU=    57
 Initial guess from the checkpoint file:  "C:\Work\Gau-12016.chk"
 B after Tr=     0.000000    0.000000    0.000000
         Rot=    0.999987    0.005038   -0.000957   -0.000088 Ang=   0.59 deg.
 ExpMin= 1.61D-01 ExpMax= 3.05D+03 ExpMxC= 4.57D+02 IAcc=1 IRadAn=         1 AccDes= 0.00D+00
 Harris functional with IExCor=  402 and IRadAn=       1 diagonalized for initial guess.
 HarFok:  IExCor=  402 AccDes= 0.00D+00 IRadAn=         1 IDoV= 1 UseB2=F ITyADJ=14
[...]
     7   1     0.32   0.18   0.52    -0.38  -0.21  -0.56     0.14   0.07   0.23
     8   1     0.00  -0.02   0.00     0.00   0.00   0.00     0.01  -0.30   0.00
     9   1     0.32   0.19  -0.52     0.37   0.21  -0.56     0.14   0.06  -0.23
                     19                     20                     21
                      A                      A                      A
 Frequencies --   3145.0889              3156.8533              3235.0567
 Red. masses --      1.0810                 1.0705                 1.1155
 Frc consts  --      6.3002                 6.2858                 6.8780
 IR Inten    --     38.2837                 3.8990                23.7391
  Atom  AN      X      Y      Z        X      Y      Z        X      Y      Z
     1   6     0.02   0.01   0.00    -0.05  -0.05   0.00    -0.06   0.08   0.00
     2   1    -0.28   0.15   0.00     0.46  -0.26   0.00     0.70  -0.36   0.00
     3   1     0.00  -0.23   0.00     0.01   0.76   0.00    -0.02  -0.60   0.00
     4   6     0.00   0.07   0.00     0.01   0.03   0.00     0.00   0.01   0.00
     5   6     0.01   0.03   0.00     0.00   0.01   0.00     0.00   0.00   0.00
     6   1    -0.01  -0.26   0.00     0.00  -0.05   0.00     0.00  -0.02   0.00
     7   1    -0.05  -0.02  -0.08    -0.02  -0.01  -0.03     0.00   0.00   0.00
     8   1     0.03  -0.87   0.00     0.01  -0.35   0.00     0.00  -0.12   0.00
     9   1    -0.05  -0.02   0.08    -0.02  -0.01   0.03     0.00   0.00   0.00

 -------------------
 - Thermochemistry -
 -------------------
 Temperature   298.150 Kelvin.  Pressure   1.00000 Atm.
 Atom     1 has atomic number  6 and mass  12.00000
 Atom     2 has atomic number  1 and mass   1.00783
 Atom     3 has atomic number  1 and mass   1.00783
 Atom     4 has atomic number  6 and mass  12.00000
 Atom     5 has atomic number  6 and mass  12.00000
 Atom     6 has atomic number  1 and mass   1.00783
 Atom     7 has atomic number  1 and mass   1.00783
 Atom     8 has atomic number  1 and mass   1.00783
 Atom     9 has atomic number  1 and mass   1.00783
 Molecular mass:    42.04695 amu.
 Principal axes and moments of inertia in atomic units:
                           1         2         3
     Eigenvalues --    38.57944 195.20309 222.62315
           X            1.00000  -0.00306   0.00000
           Y            0.00306   1.00000  -0.00006
           Z            0.00000   0.00006   1.00000
 This molecule is an asymmetric top.
 Rotational symmetry number  1.
 Rotational temperatures (Kelvin)      2.24508     0.44371     0.38906
 Rotational constants (GHZ):          46.77987     9.24545     8.10671
 Zero-point vibrational energy     210254.2 (Joules/Mol)
                                   50.25195 (Kcal/Mol)
 Warning -- explicit consideration of   3 degrees of freedom as
           vibrations may cause significant error
 Vibrational temperatures:    303.05   609.89   847.06  1342.27  1346.89
          (Kelvin)           1374.97  1489.38  1556.49  1731.20  1925.31
                             2064.81  2119.83  2171.98  2192.67  2501.20
                             4362.79  4429.89  4484.16  4525.08  4542.00
                             4654.52
 
 Zero-point correction=                           0.080082 (Hartree/Particle)
 Thermal correction to Energy=                    0.084158
 Thermal correction to Enthalpy=                  0.085102
 Thermal correction to Gibbs Free Energy=         0.055079
 Sum of electronic and zero-point Energies=           -117.827475
 Sum of electronic and thermal Energies=              -117.823398
 Sum of electronic and thermal Enthalpies=            -117.822454
 Sum of electronic and thermal Free Energies=         -117.852477
 
                     E (Thermal)             CV                S
                      KCal/Mol        Cal/Mol-Kelvin    Cal/Mol-Kelvin
 Total                   52.810             12.917             63.188
 Electronic               0.000              0.000              0.000
 Translational            0.889              2.981             37.136
 Rotational               0.889              2.981             22.043
 Vibrational             51.032              6.955              4.009
 Vibration     1          0.643              1.825              2.038
 Vibration     2          0.786              1.418              0.879
 Vibration     3          0.946              1.056              0.469
                       Q            Log10(Q)             Ln(Q)
 Total Bot       0.462655D-25        -25.334743        -58.335401
 Total V=0       0.316338D+12         11.500152         26.480078
 Vib (Bot)       0.294542D-36        -36.530853        -84.115397
 Vib (Bot)    1  0.942708D+00         -0.025623         -0.058998
 Vib (Bot)    2  0.412988D+00         -0.384062         -0.884336
 Vib (Bot)    3  0.256558D+00         -0.590814         -1.360399
 Vib (V=0)       0.201392D+01          0.304042          0.700082
 Vib (V=0)    1  0.156710D+01          0.195096          0.449226
 Vib (V=0)    2  0.114851D+01          0.060133          0.138461
 Vib (V=0)    3  0.106198D+01          0.026117          0.060136
 Electronic      0.100000D+01          0.000000          0.000000
 Translational   0.107166D+08          7.030057         16.187304
 Rotational      0.146573D+05          4.166053          9.592691
 ***** Axes restored to original set *****
 -------------------------------------------------------------------
 Center     Atomic                   Forces (Hartrees/Bohr)
 Number     Number              X              Y              Z
 -------------------------------------------------------------------
      1        6           0.000023044    0.000013993    0.000022485
      2        1          -0.000014268   -0.000007892    0.000008122
      3        1          -0.000010254   -0.000004995   -0.000019981
      4        6           0.000022396    0.000034268   -0.000008761
      5        6           0.000016156   -0.000017109   -0.000015043
      6        1          -0.000005954   -0.000004811    0.000001144
      7        1          -0.000002252    0.000002045    0.000009235
      8        1          -0.000019879   -0.000005104   -0.000011297
      9        1          -0.000008989   -0.000010395    0.000014097
 -------------------------------------------------------------------
 Cartesian Forces:  Max     0.000034268 RMS     0.000014551
 FormGI is forming the generalized inverse of G from B-inverse, IUseBI=4.

 GradGradGradGradGradGradGradGradGradGradGradGradGradGradGradGradGradGrad
 Berny optimization.
 Internal  Forces:  Max     0.000039332 RMS     0.000012382
 Search for a local minimum.
 Step number   1 out of a maximum of    2
 All quantities printed in internal units (Hartrees-Bohrs-Radians)
 Second derivative matrix not updated -- analytic derivatives used.
 ITU=  0
     Eigenvalues ---    0.00247   0.01908   0.03217   0.03908   0.05934
     Eigenvalues ---    0.06034   0.10808   0.11301   0.12206   0.12692
     Eigenvalues ---    0.14685   0.14772   0.18478   0.31851   0.33018
     Eigenvalues ---    0.33818   0.34669   0.35175   0.35887   0.36394
     Eigenvalues ---    0.64400
 Angle between quadratic step and forces=  45.52 degrees.
 Linear search not attempted -- first point.
 Iteration  1 RMS(Cart)=  0.00026777 RMS(Int)=  0.00000006
 Iteration  2 RMS(Cart)=  0.00000007 RMS(Int)=  0.00000002
 Variable       Old X    -DE/DX   Delta X   Delta X   Delta X     New X
                                 (Linear)    (Quad)   (Total)
    R1        2.05365   0.00001   0.00000   0.00002   0.00002   2.05367
    R2        2.05691   0.00001   0.00000   0.00002   0.00002   2.05693
    R3        2.51961   0.00000   0.00000   0.00000   0.00000   2.51961
    R4        2.83839   0.00001   0.00000   0.00003   0.00003   2.83842
    R5        2.06202   0.00000   0.00000  -0.00002  -0.00002   2.06201
    R6        2.06963   0.00000   0.00000   0.00000   0.00000   2.06963
    R7        2.07576   0.00001   0.00000   0.00003   0.00003   2.07580
    R8        2.07586  -0.00002   0.00000  -0.00006  -0.00006   2.07580
    A1        2.03373  -0.00002   0.00000  -0.00019  -0.00019   2.03353
    A2        2.12646   0.00001   0.00000   0.00008   0.00008   2.12654
    A3        2.12300   0.00001   0.00000   0.00012   0.00012   2.12311
    A4        2.18568  -0.00003   0.00000  -0.00018  -0.00018   2.18550
    A5        2.07487  -0.00001   0.00000  -0.00013  -0.00013   2.07474
    A6        2.02263   0.00004   0.00000   0.00031   0.00031   2.02294
    A7        1.94631  -0.00001   0.00000  -0.00010  -0.00010   1.94621
    A8        1.94080  -0.00001   0.00000  -0.00011  -0.00011   1.94069
    A9        1.94051   0.00001   0.00000   0.00018   0.00018   1.94069
   A10        1.88665   0.00000   0.00000  -0.00002  -0.00002   1.88662
   A11        1.88657   0.00000   0.00000   0.00005   0.00005   1.88662
   A12        1.85964   0.00000   0.00000   0.00000   0.00000   1.85964
    D1       -3.14102  -0.00002   0.00000  -0.00057  -0.00057  -3.14159
    D2        0.00015  -0.00001   0.00000  -0.00015  -0.00015   0.00000
    D3        0.00065  -0.00002   0.00000  -0.00065  -0.00065   0.00000
    D4       -3.14136  -0.00001   0.00000  -0.00023  -0.00023   3.14159
    D5       -0.00024   0.00000   0.00000   0.00024   0.00024   0.00000
    D6       -2.10741   0.00001   0.00000   0.00041   0.00041  -2.10700
    D7        2.10664   0.00000   0.00000   0.00036   0.00036   2.10700
    D8       -3.14142  -0.00001   0.00000  -0.00018  -0.00018   3.14159
    D9        1.03459   0.00000   0.00000   0.00000   0.00000   1.03459
   D10       -1.03454   0.00000   0.00000  -0.00005  -0.00005  -1.03459
         Item               Value     Threshold  Converged?
 Maximum Force            0.000039     0.000450     YES
 RMS     Force            0.000012     0.000300     YES
 Maximum Displacement     0.000772     0.001800     YES
 RMS     Displacement     0.000268     0.001200     YES
 Predicted change in Energy=-2.889736D-08
 Optimization completed.
    -- Stationary point found.
                           ----------------------------
                           !   Optimized Parameters   !
                           ! (Angstroms and Degrees)  !
 --------------------------                            --------------------------
 ! Name  Definition              Value          Derivative Info.                !
 --------------------------------------------------------------------------------
 ! R1    R(1,2)                  1.0867         -DE/DX =    0.0                 !
 ! R2    R(1,3)                  1.0885         -DE/DX =    0.0                 !
 ! R3    R(1,4)                  1.3333         -DE/DX =    0.0                 !
 ! R4    R(4,5)                  1.502          -DE/DX =    0.0                 !
 ! R5    R(4,8)                  1.0912         -DE/DX =    0.0                 !
 ! R6    R(5,6)                  1.0952         -DE/DX =    0.0                 !
 ! R7    R(5,7)                  1.0984         -DE/DX =    0.0                 !
 ! R8    R(5,9)                  1.0985         -DE/DX =    0.0                 !
 ! A1    A(2,1,3)              116.524          -DE/DX =    0.0                 !
 ! A2    A(2,1,4)              121.8372         -DE/DX =    0.0                 !
 ! A3    A(3,1,4)              121.6388         -DE/DX =    0.0                 !
 ! A4    A(1,4,5)              125.23           -DE/DX =    0.0                 !
 ! A5    A(1,4,8)              118.8816         -DE/DX =    0.0                 !
 ! A6    A(5,4,8)              115.8884         -DE/DX =    0.0                 !
 ! A7    A(4,5,6)              111.5151         -DE/DX =    0.0                 !
 ! A8    A(4,5,7)              111.1995         -DE/DX =    0.0                 !
 ! A9    A(4,5,9)              111.1828         -DE/DX =    0.0                 !
 ! A10   A(6,5,7)              108.0968         -DE/DX =    0.0                 !
 ! A11   A(6,5,9)              108.0925         -DE/DX =    0.0                 !
 ! A12   A(7,5,9)              106.5494         -DE/DX =    0.0                 !
 ! D1    D(2,1,4,5)           -179.9673         -DE/DX =    0.0                 !
 ! D2    D(2,1,4,8)              0.0085         -DE/DX =    0.0                 !
 ! D3    D(3,1,4,5)              0.0375         -DE/DX =    0.0                 !
 ! D4    D(3,1,4,8)            180.0132         -DE/DX =    0.0                 !
 ! D5    D(1,4,5,6)             -0.0136         -DE/DX =    0.0                 !
 ! D6    D(1,4,5,7)           -120.7457         -DE/DX =    0.0                 !
 ! D7    D(1,4,5,9)            120.7017         -DE/DX =    0.0                 !
 ! D8    D(8,4,5,6)            180.01           -DE/DX =    0.0                 !
 ! D9    D(8,4,5,7)             59.2779         -DE/DX =    0.0                 !
 ! D10   D(8,4,5,9)            -59.2747         -DE/DX =    0.0                 !
 --------------------------------------------------------------------------------
 GradGradGradGradGradGradGradGradGradGradGradGradGradGradGradGradGradGrad

 1|1|UNPC-CBEGRAD02|Freq|RB3LYP|6-31G(d)|C3H6|GPD20001|13-Dec-2021|0||#
 N Geom=AllCheck Guess=TCheck SCRF=Check GenChk RB3LYP/6-31G(d) Freq||C
 3H6 - opt + Freq||0,1|C,-1.2234175364,-0.0180812964,-0.3181557323|H,-2
 .1740251484,0.365908635,-0.6785817141|H,-1.1026929174,-1.0998224022,-0
 .3234140565|C,-0.2541070503,0.7917808686,0.1088106886|C,1.0854913853,0
 .3450793723,0.6206408426|H,1.1785620961,-0.7460264812,0.6034946459|H,1
 .2503161911,0.6854166359,1.6519448829|H,-0.4234831487,1.8696392058,0.0
 946933916|H,1.9014034286,0.7665698822,0.0178762812||Version=EM64W-G09R
 evD.01|State=1-A|HF=-117.9075562|RMSD=8.665e-010|RMSF=1.455e-005|ZeroP
 oint=0.0800816|Thermal=0.0841579|Dipole=0.1203237,0.0500561,0.0503621|
 DipoleDeriv=-0.1143562,-0.0806698,0.0735529,-0.0835192,0.0771788,-0.01
 42495,0.0733599,-0.0131101,-0.2798323,-0.0755563,0.0370483,-0.0861311,
 0.0572436,0.0200255,0.0166662,-0.0851362,0.0086078,0.1113288,0.0451055
 ,0.049454,-0.0313768,0.0114939,-0.1152289,-0.0075362,-0.0332308,0.0076
 111,0.1169709,0.2220848,0.0163244,0.1540711,-0.0563843,0.1418202,-0.00
 73858,0.1503466,0.0214822,-0.1013891,0.0081306,0.0157243,-0.0559999,-0
 .0154601,0.0648068,-0.0104218,-0.0573978,0.0020688,0.1279191,0.0270911
 ,-0.0092784,-0.0163746,0.0553602,-0.1402003,0.0117821,-0.0131676,-0.01
 40008,0.0610329,0.0017968,-0.0056165,-0.0439703,0.0261415,0.0545373,-0
 .0610038,-0.0760864,-0.0649878,-0.1315559,0.0040835,0.0358661,-0.04063
 5,0.0410265,-0.1449803,0.0036679,-0.0403544,0.00169,0.0944685,-0.11837
 99,-0.0588523,0.0468637,-0.0359022,0.0420409,0.0684808,0.0816667,0.050
 6387,0.0010571|Polar=38.8578135,4.7378321,33.0544037,8.1783947,2.58913
 27,22.3380154|PG=C01 [X(C3H6)]|NImag=0||0.69410412,0.08814043,0.721369
 14,0.24010188,0.06574219,0.20250523,-0.26856958,0.08974199,-0.08960461
 ,0.28494654,0.09381324,-0.09745532,0.03424877,-0.09657449,0.09378636,-
 0.08940575,0.03262418,-0.06701519,0.09965806,-0.03505640,0.06131748,-0
 .06025126,0.03702527,-0.00843828,0.00011507,0.02505433,0.00063465,0.05
 418246,0.03349795,-0.33085759,-0.00127646,-0.00058681,-0.00675472,-0.0
 0064935,-0.03457952,0.35424974,-0.00860869,0.00014143,-0.03794863,-0.0
 0063487,0.00958218,0.00185495,0.01053685,0.00254774,0.02783232,-0.3434
 0926,-0.20149981,-0.12781204,-0.01698323,-0.01998436,-0.00883470,0.006
 46577,0.00407494,0.00074868,0.64360928,-0.20234199,-0.28709147,-0.0925
 8601,0.01096313,0.01019562,0.00475188,-0.02408393,-0.01836653,-0.01078
 040,0.12529136,0.72255038,-0.12784355,-0.09225383,-0.10374759,-0.00729
 864,-0.00759893,-0.00061281,-0.00064269,0.00046554,0.00485017,0.203631
 17,0.07847149,0.23380517,-0.02586243,0.00449766,-0.01289491,0.00173033
 ,-0.00107770,-0.00494622,0.00055543,0.00153122,0.00359292,-0.19243063,
 0.03881205,-0.04544645,0.50422102,-0.01777549,0.01091572,-0.00689860,-
 0.00300451,-0.00209346,-0.00199976,-0.00175632,0.00120554,-0.00022913,
 0.04378483,-0.10711737,0.01579323,0.01624862,0.58222357,-0.01401253,0.
 00198598,0.00155033,-0.00505235,-0.00122794,0.01193241,0.00343398,0.00
 107781,-0.00684670,-0.04517703,0.01380557,-0.09095742,-0.01213547,0.00
 876566,0.53256916,0.00170119,0.00099147,0.00096657,0.00037090,-0.00029
 944,0.00020816,-0.00007297,-0.00114133,-0.00015595,-0.00222157,0.03288
 866,0.00101753,-0.05134684,0.01746958,0.00039690,0.05454265,-0.0015732
 2,0.00156302,-0.00052065,-0.00007487,0.00037834,-0.00000169,0.00077943
 ,0.00069563,0.00033657,0.00127256,-0.01045177,0.00002266,0.01972900,-0
 .31311899,-0.00520863,-0.02262200,0.33970460,0.00083864,0.00050236,-0.
 00023997,0.00021907,-0.00009124,-0.00010500,-0.00006081,-0.00042897,0.
 00013168,-0.00055145,0.01262220,-0.00027156,0.00050869,-0.00611084,-0.
 05027130,0.00184000,0.00552707,0.04811877,-0.00229515,0.00308210,-0.00
 081352,-0.00171793,-0.00052120,0.00211984,0.00049542,0.00002690,-0.001
 16998,-0.00753895,-0.01244664,-0.03102418,-0.04953791,-0.01028599,-0.0
 3481280,-0.00070177,0.00019210,0.00245270,0.05666401,0.00098211,0.0000
 0911,0.00009465,0.00010168,0.00030978,-0.00031329,0.00021366,0.0002324
 1,-0.00021756,-0.00079295,0.00405147,0.01034938,-0.00880396,-0.0757557
 5,-0.07512413,-0.00437476,-0.00862911,-0.03156231,0.01106575,0.0755668
 3,-0.00026415,0.00209061,-0.00002806,-0.00045661,-0.00024621,0.0005209
 9,0.00023799,0.00005694,-0.00036787,-0.00406029,-0.00359675,-0.0080502
 6,-0.03251266,-0.07660820,-0.27458902,0.00076915,0.00010832,0.00136102
 ,0.03846138,0.08398517,0.29921706,0.00649094,-0.02564886,-0.00096922,-
 0.00008763,-0.00007097,0.00306563,-0.00111005,-0.00276347,-0.00545844,
 -0.06238369,0.04466439,-0.00626552,-0.00228827,0.02859320,-0.00041442,
 -0.00497701,0.00147273,-0.00266661,0.00077074,-0.00053473,-0.00039605,
 0.06265181,0.00442742,-0.01850885,0.00056638,-0.00040971,0.00136279,0.
 00029048,-0.00265901,-0.00061364,-0.00169967,0.04130308,-0.31884489,0.
 00270354,0.00005263,-0.00701599,-0.00043991,0.00144123,0.00095438,0.00
 052789,0.00030851,0.00024166,0.00039887,-0.04503138,0.34217051,0.00052
 152,-0.01143479,0.00538241,0.00305106,0.00042401,-0.00654313,-0.005454
 94,-0.00173699,0.00996486,-0.00643754,0.00405132,-0.04348955,-0.001824
 50,0.01093882,0.00211842,-0.00266852,0.00054063,0.00085913,0.00101950,
 -0.00035709,0.00044410,0.01230478,-0.00229525,0.03099097,-0.00190857,0
 .00366975,-0.00053588,0.00019552,-0.00033941,-0.00249967,-0.00037988,-
 0.00005986,0.00114948,-0.02510773,-0.01374705,0.01387232,-0.18504070,-
 0.07327392,0.10777373,0.00270542,0.00082427,-0.00258022,0.00386154,0.0
 0214319,-0.00177877,0.00093316,0.00056724,-0.00051136,0.20474124,0.000
 82955,0.00005624,0.00062974,-0.00015640,0.00027061,0.00035394,0.000006
 08,0.00020916,0.00031885,0.00655036,0.00507456,-0.00795308,-0.07098953
 ,-0.08924327,0.05636560,-0.02435342,-0.01109609,0.01901384,0.00857848,
 0.00397361,-0.00618876,-0.00068091,0.00025404,-0.00013065,0.08021579,0
 .09050114,-0.00132736,0.00060188,-0.00045852,0.00011888,-0.00003425,-0
 .00134971,-0.00024676,-0.00005626,0.00052921,-0.01150680,-0.00673930,0
 .00847384,0.10565860,0.05634881,-0.12550589,-0.00237385,-0.00080427,0.
 00041723,0.02376705,0.01314519,-0.01850797,0.00079985,-0.00005233,0.00
 027280,-0.11488962,-0.06240947,0.13612901||-0.00002304,-0.00001399,-0.
 00002248,0.00001427,0.00000789,-0.00000812,0.00001025,0.00000500,0.000
 01998,-0.00002240,-0.00003427,0.00000876,-0.00001616,0.00001711,0.0000
 1504,0.00000595,0.00000481,-0.00000114,0.00000225,-0.00000204,-0.00000
 924,0.00001988,0.00000510,0.00001130,0.00000899,0.00001039,-0.00001410
 |||@


     SCHOPENHAUER'S LAW OF ENTROPY
 IF YOU PUT A SPOONFUL OF WINE IN A BARREL FULL
 OF SEWAGE, YOU GET SEWAGE.
 IF YOU PUT A SPOONFUL OF SEWAGE IN A BARREL FULL
 OF WINE, YOU GET SEWAGE.
 Job cpu time:       0 days  0 hours  0 minutes 42.0 seconds.
 File lengths (MBytes):  RWF=      6 Int=      0 D2E=      0 Chk=      1 Scr=      1
 Normal termination of Gaussian 09 at Mon Dec 13 18:45:01 2021.
